<?xml version="1.0" encoding="ISO-8859-1"?>
<modeling>
 <generator>
  <i name="program" type="string">vasp </i>
  <i name="version" type="string">5.4.4.18Apr17-6-g9f103f2a35  </i>
  <i name="subversion" type="string">(build Jan 07 2019 12:20:41) complex            parallel </i>
  <i name="platform" type="string">LinuxIFC </i>
  <i name="date" type="string">2019 11 25 </i>
  <i name="time" type="string">00:34:18 </i>
 </generator>
 <incar>
  <i type="string" name="SYSTEM"> AlAs</i>
  <i type="string" name="PREC">high</i>
  <i type="string" name="ALGO"> N</i>
  <i type="int" name="NELMIN">     7</i>
  <i name="EDIFF">      0.00000100</i>
  <i type="int" name="ISMEAR">     0</i>
  <i name="SIGMA">      0.10000000</i>
  <i type="int" name="LORBIT">    11</i>
  <v type="int" name="KPOINT_BSE">    -1     0     0     0</v>
  <i type="logical" name="LHFCALC"> T  </i>
  <i name="HFSCREEN">      0.20100000</i>
  <i type="string" name="PRECFOCK">fast</i>
 </incar>
 <structure name="primitive_cell" >
  <crystal>
   <varray name="basis" >
    <v>       2.83840171       2.83840171       0.00000000 </v>
    <v>       0.00000000       2.83840171       2.83840171 </v>
    <v>       2.83840171       0.00000000       2.83840171 </v>
   </varray>
   <i name="volume">     45.73530449 </i>
   <varray name="rec_basis" >
    <v>       0.17615547       0.17615547      -0.17615547 </v>
    <v>      -0.17615547       0.17615547       0.17615547 </v>
    <v>       0.17615547      -0.17615547       0.17615547 </v>
   </varray>
  </crystal>
  <varray name="positions" >
   <v>       0.00000000       0.00000000       0.00000000 </v>
   <v>       0.25000000       0.25000000       0.25000000 </v>
  </varray>
 </structure>
 <varray name="primitive_index" >
  <v type="int" >        1 </v>
  <v type="int" >        2 </v>
 </varray>
 <kpoints>
  <varray name="kpointlist" >
   <v>       0.12500000       0.12500000       0.12500000 </v>
   <v>       0.37500000       0.12500000       0.12500000 </v>
   <v>      -0.37500000       0.12500000       0.12500000 </v>
   <v>      -0.12500000       0.12500000       0.12500000 </v>
   <v>       0.37500000       0.37500000       0.12500000 </v>
   <v>      -0.37500000       0.37500000       0.12500000 </v>
   <v>      -0.12500000       0.37500000       0.12500000 </v>
   <v>      -0.37500000      -0.37500000       0.12500000 </v>
   <v>       0.37500000       0.37500000       0.37500000 </v>
   <v>      -0.37500000       0.37500000       0.37500000 </v>
   <v>       0.50000000       0.50000000       0.50000000 </v>
   <v>       0.48000000       0.48000000       0.48000000 </v>
   <v>       0.46000000       0.46000000       0.46000000 </v>
   <v>       0.44000000       0.44000000       0.44000000 </v>
   <v>       0.42000000       0.42000000       0.42000000 </v>
   <v>       0.40000000       0.40000000       0.40000000 </v>
   <v>       0.38000000       0.38000000       0.38000000 </v>
   <v>       0.36000000       0.36000000       0.36000000 </v>
   <v>       0.34000000       0.34000000       0.34000000 </v>
   <v>       0.32000000       0.32000000       0.32000000 </v>
   <v>       0.30000000       0.30000000       0.30000000 </v>
   <v>       0.28000000       0.28000000       0.28000000 </v>
   <v>       0.26000000       0.26000000       0.26000000 </v>
   <v>       0.24000000       0.24000000       0.24000000 </v>
   <v>       0.22000000       0.22000000       0.22000000 </v>
   <v>       0.20000000       0.20000000       0.20000000 </v>
   <v>       0.18000000       0.18000000       0.18000000 </v>
   <v>       0.16000000       0.16000000       0.16000000 </v>
   <v>       0.14000000       0.14000000       0.14000000 </v>
   <v>       0.12000000       0.12000000       0.12000000 </v>
   <v>       0.10000000       0.10000000       0.10000000 </v>
   <v>       0.08000000       0.08000000       0.08000000 </v>
   <v>       0.06000000       0.06000000       0.06000000 </v>
   <v>       0.04000000       0.04000000       0.04000000 </v>
   <v>       0.02000000       0.02000000       0.02000000 </v>
   <v>       0.00000000       0.00000000       0.00000000 </v>
   <v>       0.00000000       0.02000000       0.02000000 </v>
   <v>       0.00000000       0.04000000       0.04000000 </v>
   <v>       0.00000000       0.06000000       0.06000000 </v>
   <v>       0.00000000       0.08000000       0.08000000 </v>
   <v>       0.00000000       0.10000000       0.10000000 </v>
   <v>       0.00000000       0.12000000       0.12000000 </v>
   <v>       0.00000000       0.14000000       0.14000000 </v>
   <v>       0.00000000       0.16000000       0.16000000 </v>
   <v>       0.00000000       0.18000000       0.18000000 </v>
   <v>       0.00000000       0.20000000       0.20000000 </v>
   <v>       0.00000000       0.22000000       0.22000000 </v>
   <v>       0.00000000       0.24000000       0.24000000 </v>
   <v>       0.00000000       0.26000000       0.26000000 </v>
   <v>       0.00000000       0.28000000       0.28000000 </v>
   <v>       0.00000000       0.30000000       0.30000000 </v>
   <v>       0.00000000       0.32000000       0.32000000 </v>
   <v>       0.00000000       0.34000000       0.34000000 </v>
   <v>       0.00000000       0.36000000       0.36000000 </v>
   <v>       0.00000000       0.38000000       0.38000000 </v>
   <v>       0.00000000       0.40000000       0.40000000 </v>
   <v>       0.00000000       0.42000000       0.42000000 </v>
   <v>       0.00000000       0.44000000       0.44000000 </v>
   <v>       0.00000000       0.46000000       0.46000000 </v>
   <v>       0.00000000       0.48000000       0.48000000 </v>
   <v>       0.00000000       0.50000000       0.50000000 </v>
   <v>       0.01000000       0.51000000       0.50000000 </v>
   <v>       0.02000000       0.52000000       0.50000000 </v>
   <v>       0.03000000       0.53000000       0.50000000 </v>
   <v>       0.04000000       0.54000000       0.50000000 </v>
   <v>       0.05000000       0.55000000       0.50000000 </v>
   <v>       0.06000000       0.56000000       0.50000000 </v>
   <v>       0.07000000       0.57000000       0.50000000 </v>
   <v>       0.08000000       0.58000000       0.50000000 </v>
   <v>       0.09000000       0.59000000       0.50000000 </v>
   <v>       0.10000000       0.60000000       0.50000000 </v>
   <v>       0.11000000       0.61000000       0.50000000 </v>
   <v>       0.12000000       0.62000000       0.50000000 </v>
   <v>       0.13000000       0.63000000       0.50000000 </v>
   <v>       0.14000000       0.64000000       0.50000000 </v>
   <v>       0.15000000       0.65000000       0.50000000 </v>
   <v>       0.16000000       0.66000000       0.50000000 </v>
   <v>       0.17000000       0.67000000       0.50000000 </v>
   <v>       0.18000000       0.68000000       0.50000000 </v>
   <v>       0.19000000       0.69000000       0.50000000 </v>
   <v>       0.20000000       0.70000000       0.50000000 </v>
   <v>       0.21000000       0.71000000       0.50000000 </v>
   <v>       0.22000000       0.72000000       0.50000000 </v>
   <v>       0.23000000       0.73000000       0.50000000 </v>
   <v>       0.24000000       0.74000000       0.50000000 </v>
   <v>       0.25000000       0.75000000       0.50000000 </v>
   <v>       0.25500000       0.75000000       0.49500000 </v>
   <v>       0.26000000       0.75000000       0.49000000 </v>
   <v>       0.26500000       0.75000000       0.48500000 </v>
   <v>       0.27000000       0.75000000       0.48000000 </v>
   <v>       0.27500000       0.75000000       0.47500000 </v>
   <v>       0.28000000       0.75000000       0.47000000 </v>
   <v>       0.28500000       0.75000000       0.46500000 </v>
   <v>       0.29000000       0.75000000       0.46000000 </v>
   <v>       0.29500000       0.75000000       0.45500000 </v>
   <v>       0.30000000       0.75000000       0.45000000 </v>
   <v>       0.30500000       0.75000000       0.44500000 </v>
   <v>       0.31000000       0.75000000       0.44000000 </v>
   <v>       0.31500000       0.75000000       0.43500000 </v>
   <v>       0.32000000       0.75000000       0.43000000 </v>
   <v>       0.32500000       0.75000000       0.42500000 </v>
   <v>       0.33000000       0.75000000       0.42000000 </v>
   <v>       0.33500000       0.75000000       0.41500000 </v>
   <v>       0.34000000       0.75000000       0.41000000 </v>
   <v>       0.34500000       0.75000000       0.40500000 </v>
   <v>       0.35000000       0.75000000       0.40000000 </v>
   <v>       0.35500000       0.75000000       0.39500000 </v>
   <v>       0.36000000       0.75000000       0.39000000 </v>
   <v>       0.36500000       0.75000000       0.38500000 </v>
   <v>       0.37000000       0.75000000       0.38000000 </v>
   <v>       0.37500000       0.75000000       0.37500000 </v>
   <v>       0.36000000       0.72000000       0.36000000 </v>
   <v>       0.34500000       0.69000000       0.34500000 </v>
   <v>       0.33000000       0.66000000       0.33000000 </v>
   <v>       0.31500000       0.63000000       0.31500000 </v>
   <v>       0.30000000       0.60000000       0.30000000 </v>
   <v>       0.28500000       0.57000000       0.28500000 </v>
   <v>       0.27000000       0.54000000       0.27000000 </v>
   <v>       0.25500000       0.51000000       0.25500000 </v>
   <v>       0.24000000       0.48000000       0.24000000 </v>
   <v>       0.22500000       0.45000000       0.22500000 </v>
   <v>       0.21000000       0.42000000       0.21000000 </v>
   <v>       0.19500000       0.39000000       0.19500000 </v>
   <v>       0.18000000       0.36000000       0.18000000 </v>
   <v>       0.16500000       0.33000000       0.16500000 </v>
   <v>       0.15000000       0.30000000       0.15000000 </v>
   <v>       0.13500000       0.27000000       0.13500000 </v>
   <v>       0.12000000       0.24000000       0.12000000 </v>
   <v>       0.10500000       0.21000000       0.10500000 </v>
   <v>       0.09000000       0.18000000       0.09000000 </v>
   <v>       0.07500000       0.15000000       0.07500000 </v>
   <v>       0.06000000       0.12000000       0.06000000 </v>
   <v>       0.04500000       0.09000000       0.04500000 </v>
   <v>       0.03000000       0.06000000       0.03000000 </v>
   <v>       0.01500000       0.03000000       0.01500000 </v>
   <v>       0.00000000       0.00000000       0.00000000 </v>
  </varray>
  <varray name="weights" >
   <v>       0.03125000 </v>
   <v>       0.09375000 </v>
   <v>       0.09375000 </v>
   <v>       0.09375000 </v>
   <v>       0.09375000 </v>
   <v>       0.18750000 </v>
   <v>       0.18750000 </v>
   <v>       0.09375000 </v>
   <v>       0.03125000 </v>
   <v>       0.09375000 </v>
   <v>       0.00000000 </v>
   <v>       0.00000000 </v>
   <v>       0.00000000 </v>
   <v>       0.00000000 </v>
   <v>       0.00000000 </v>
   <v>       0.00000000 </v>
   <v>       0.00000000 </v>
   <v>       0.00000000 </v>
   <v>       0.00000000 </v>
   <v>       0.00000000 </v>
   <v>       0.00000000 </v>
   <v>       0.00000000 </v>
   <v>       0.00000000 </v>
   <v>       0.00000000 </v>
   <v>       0.00000000 </v>
   <v>       0.00000000 </v>
   <v>       0.00000000 </v>
   <v>       0.00000000 </v>
   <v>       0.00000000 </v>
   <v>       0.00000000 </v>
   <v>       0.00000000 </v>
   <v>       0.00000000 </v>
   <v>       0.00000000 </v>
   <v>       0.00000000 </v>
   <v>       0.00000000 </v>
   <v>       0.00000000 </v>
   <v>       0.00000000 </v>
   <v>       0.00000000 </v>
   <v>       0.00000000 </v>
   <v>       0.00000000 </v>
   <v>       0.00000000 </v>
   <v>       0.00000000 </v>
   <v>       0.00000000 </v>
   <v>       0.00000000 </v>
   <v>       0.00000000 </v>
   <v>       0.00000000 </v>
   <v>       0.00000000 </v>
   <v>       0.00000000 </v>
   <v>       0.00000000 </v>
   <v>       0.00000000 </v>
   <v>       0.00000000 </v>
   <v>       0.00000000 </v>
   <v>       0.00000000 </v>
   <v>       0.00000000 </v>
   <v>       0.00000000 </v>
   <v>       0.00000000 </v>
   <v>       0.00000000 </v>
   <v>       0.00000000 </v>
   <v>       0.00000000 </v>
   <v>       0.00000000 </v>
   <v>       0.00000000 </v>
   <v>       0.00000000 </v>
   <v>       0.00000000 </v>
   <v>       0.00000000 </v>
   <v>       0.00000000 </v>
   <v>       0.00000000 </v>
   <v>       0.00000000 </v>
   <v>       0.00000000 </v>
   <v>       0.00000000 </v>
   <v>       0.00000000 </v>
   <v>       0.00000000 </v>
   <v>       0.00000000 </v>
   <v>       0.00000000 </v>
   <v>       0.00000000 </v>
   <v>       0.00000000 </v>
   <v>       0.00000000 </v>
   <v>       0.00000000 </v>
   <v>       0.00000000 </v>
   <v>       0.00000000 </v>
   <v>       0.00000000 </v>
   <v>       0.00000000 </v>
   <v>       0.00000000 </v>
   <v>       0.00000000 </v>
   <v>       0.00000000 </v>
   <v>       0.00000000 </v>
   <v>       0.00000000 </v>
   <v>       0.00000000 </v>
   <v>       0.00000000 </v>
   <v>       0.00000000 </v>
   <v>       0.00000000 </v>
   <v>       0.00000000 </v>
   <v>       0.00000000 </v>
   <v>       0.00000000 </v>
   <v>       0.00000000 </v>
   <v>       0.00000000 </v>
   <v>       0.00000000 </v>
   <v>       0.00000000 </v>
   <v>       0.00000000 </v>
   <v>       0.00000000 </v>
   <v>       0.00000000 </v>
   <v>       0.00000000 </v>
   <v>       0.00000000 </v>
   <v>       0.00000000 </v>
   <v>       0.00000000 </v>
   <v>       0.00000000 </v>
   <v>       0.00000000 </v>
   <v>       0.00000000 </v>
   <v>       0.00000000 </v>
   <v>       0.00000000 </v>
   <v>       0.00000000 </v>
   <v>       0.00000000 </v>
   <v>       0.00000000 </v>
   <v>       0.00000000 </v>
   <v>       0.00000000 </v>
   <v>       0.00000000 </v>
   <v>       0.00000000 </v>
   <v>       0.00000000 </v>
   <v>       0.00000000 </v>
   <v>       0.00000000 </v>
   <v>       0.00000000 </v>
   <v>       0.00000000 </v>
   <v>       0.00000000 </v>
   <v>       0.00000000 </v>
   <v>       0.00000000 </v>
   <v>       0.00000000 </v>
   <v>       0.00000000 </v>
   <v>       0.00000000 </v>
   <v>       0.00000000 </v>
   <v>       0.00000000 </v>
   <v>       0.00000000 </v>
   <v>       0.00000000 </v>
   <v>       0.00000000 </v>
   <v>       0.00000000 </v>
   <v>       0.00000000 </v>
   <v>       0.00000000 </v>
   <v>       0.00000000 </v>
  </varray>
 </kpoints>
 <parameters>
  <separator name="general" >
   <i type="string" name="SYSTEM">AlAs</i>
   <i type="logical" name="LCOMPAT"> F  </i>
  </separator>
  <separator name="electronic" >
   <i type="string" name="PREC">high</i>
   <i name="ENMAX">    300.37500000</i>
   <i name="ENAUG">    462.75800000</i>
   <i name="EDIFF">      0.00000100</i>
   <i type="int" name="IALGO">    38</i>
   <i type="int" name="IWAVPR">    10</i>
   <i type="int" name="NBANDS">    21</i>
   <i name="NELECT">      8.00000000</i>
   <i type="int" name="TURBO">     0</i>
   <i type="int" name="IRESTART">     0</i>
   <i type="int" name="NREBOOT">     0</i>
   <i type="int" name="NMIN">     0</i>
   <i name="EREF">      0.00000000</i>
   <separator name="electronic smearing" >
    <i type="int" name="ISMEAR">     0</i>
    <i name="SIGMA">      0.10000000</i>
    <i name="KSPACING">      0.50000000</i>
    <i type="logical" name="KGAMMA"> T  </i>
   </separator>
   <separator name="electronic projectors" >
    <i type="logical" name="LREAL"> F  </i>
    <v name="ROPT">      0.00000000      0.00000000</v>
    <i type="int" name="LMAXPAW">  -100</i>
    <i type="int" name="LMAXMIX">     2</i>
    <i type="logical" name="NLSPLINE"> F  </i>
   </separator>
   <separator name="electronic startup" >
    <i type="int" name="ISTART">     0</i>
    <i type="int" name="ICHARG">     2</i>
    <i type="int" name="INIWAV">     1</i>
   </separator>
   <separator name="electronic spin" >
    <i type="int" name="ISPIN">     1</i>
    <i type="logical" name="LNONCOLLINEAR"> F  </i>
    <v name="MAGMOM">      1.00000000      1.00000000</v>
    <i name="NUPDOWN">     -1.00000000</i>
    <i type="logical" name="LSORBIT"> F  </i>
    <v name="SAXIS">      0.00000000      0.00000000      1.00000000</v>
    <i type="logical" name="LSPIRAL"> F  </i>
    <v name="QSPIRAL">      0.00000000      0.00000000      0.00000000</v>
    <i type="logical" name="LZEROZ"> F  </i>
   </separator>
   <separator name="electronic exchange-correlation" >
    <i type="logical" name="LASPH"> F  </i>
    <i type="logical" name="LMETAGGA"> F  </i>
   </separator>
   <separator name="electronic convergence" >
    <i type="int" name="NELM">    60</i>
    <i type="int" name="NELMDL">    -5</i>
    <i type="int" name="NELMIN">     7</i>
    <i name="ENINI">    300.37500000</i>
    <separator name="electronic convergence detail" >
     <i type="logical" name="LDIAG"> T  </i>
     <i type="logical" name="LSUBROT"> F  </i>
     <i name="WEIMIN">      0.00000000</i>
     <i name="EBREAK">      0.00000001</i>
     <i name="DEPER">      0.30000000</i>
     <i type="int" name="NRMM">     4</i>
     <i name="TIME">      0.40000000</i>
    </separator>
   </separator>
   <separator name="electronic mixer" >
    <i name="AMIX">      0.40000000</i>
    <i name="BMIX">      1.00000000</i>
    <i name="AMIN">      0.10000000</i>
    <i name="AMIX_MAG">      1.60000000</i>
    <i name="BMIX_MAG">      1.00000000</i>
    <separator name="electronic mixer details" >
     <i type="int" name="IMIX">     1</i>
     <i type="logical" name="MIXFIRST"> F  </i>
     <i type="int" name="MAXMIX">   -45</i>
     <i name="WC">    100.00000000</i>
     <i type="int" name="INIMIX">     1</i>
     <i type="int" name="MIXPRE">     1</i>
     <i type="int" name="MREMOVE">     5</i>
    </separator>
   </separator>
   <separator name="electronic dipolcorrection" >
    <i type="logical" name="LDIPOL"> F  </i>
    <i type="logical" name="LMONO"> F  </i>
    <i type="int" name="IDIPOL">     0</i>
    <i name="EPSILON">      1.00000000</i>
    <v name="DIPOL">   -100.00000000   -100.00000000   -100.00000000</v>
    <i name="EFIELD">      0.00000000</i>
   </separator>
  </separator>
  <separator name="grids" >
   <i type="int" name="NGX">    24</i>
   <i type="int" name="NGY">    24</i>
   <i type="int" name="NGZ">    24</i>
   <i type="int" name="NGXF">    40</i>
   <i type="int" name="NGYF">    40</i>
   <i type="int" name="NGZF">    40</i>
   <i type="logical" name="ADDGRID"> F  </i>
  </separator>
  <separator name="ionic" >
   <i type="int" name="NSW">     0</i>
   <i type="int" name="IBRION">    -1</i>
   <i type="int" name="MDALGO">     0</i>
   <i type="int" name="ISIF">     0</i>
   <i name="PSTRESS">      0.00000000</i>
   <i name="EDIFFG">      0.00001000</i>
   <i type="int" name="NFREE">     0</i>
   <i name="POTIM">      0.50000000</i>
   <i name="SMASS">     -3.00000000</i>
   <i name="SCALEE">      1.00000000</i>
  </separator>
  <separator name="ionic md" >
   <i name="TEBEG">      0.00010000</i>
   <i name="TEEND">      0.00010000</i>
   <i type="int" name="NBLOCK">     1</i>
   <i type="int" name="KBLOCK">     1</i>
   <i type="int" name="NPACO">   256</i>
   <i name="APACO">     16.00000000</i>
  </separator>
  <separator name="symmetry" >
   <i type="int" name="ISYM">     3</i>
   <i name="SYMPREC">      0.00001000</i>
  </separator>
  <separator name="dos" >
   <i type="int" name="LORBIT">    11</i>
   <v name="RWIGS">     -1.00000000     -1.00000000</v>
   <i type="int" name="NEDOS">   301</i>
   <i name="EMIN">     10.00000000</i>
   <i name="EMAX">    -10.00000000</i>
   <i name="EFERMI">      0.00000000</i>
  </separator>
  <separator name="writing" >
   <i type="int" name="NWRITE">     2</i>
   <i type="logical" name="LWAVE"> T  </i>
   <i type="logical" name="LDOWNSAMPLE"> F  </i>
   <i type="logical" name="LCHARG"> T  </i>
   <i type="logical" name="LPARD"> F  </i>
   <i type="logical" name="LVTOT"> F  </i>
   <i type="logical" name="LVHAR"> F  </i>
   <i type="logical" name="LELF"> F  </i>
   <i type="logical" name="LOPTICS"> F  </i>
   <v name="STM">      0.00000000      0.00000000      0.00000000      0.00000000      0.00000000      0.00000000      0.00000000</v>
  </separator>
  <separator name="performance" >
   <i type="int" name="NPAR">    21</i>
   <i type="int" name="NSIM">     4</i>
   <i type="int" name="NBLK">    -1</i>
   <i type="logical" name="LPLANE"> T  </i>
   <i type="logical" name="LSCALAPACK"> T  </i>
   <i type="logical" name="LSCAAWARE"> T  </i>
   <i type="logical" name="LSCALU"> F  </i>
   <i type="logical" name="LASYNC"> F  </i>
   <i type="logical" name="LORBITALREAL"> F  </i>
  </separator>
  <separator name="miscellaneous" >
   <i type="int" name="IDIOT">     3</i>
   <i type="int" name="ISPECIAL">     0</i>
   <i type="logical" name="LMUSIC"> F  </i>
   <v name="POMASS">     26.98100000     74.92200000</v>
   <v name="DARWINR">      0.00000000      0.00000000</v>
   <v name="DARWINV">      1.00000000      1.00000000</v>
   <i type="logical" name="LCORR"> T  </i>
  </separator>
  <i type="logical" name="GGA_COMPAT"> T  </i>
  <i type="logical" name="LBERRY"> F  </i>
  <i type="int" name="ICORELEVEL">     0</i>
  <i type="logical" name="LDAU"> F  </i>
  <i type="int" name="I_CONSTRAINED_M">     0</i>
  <separator name="electronic exchange-correlation" >
   <i type="string" name="GGA">--</i>
   <i type="int" name="VOSKOWN">     0</i>
   <i type="logical" name="LHFCALC"> T  </i>
   <i type="string" name="PRECFOCK">fast</i>
   <i type="logical" name="LSYMGRAD"> F  </i>
   <i type="logical" name="LHFONE"> F  </i>
   <i type="logical" name="LRHFCALC"> F  </i>
   <i type="logical" name="LTHOMAS"> F  </i>
   <i type="logical" name="LMODELHF"> F  </i>
   <i name="ENCUT4O">     -1.00000000</i>
   <i type="int" name="EXXOEP">     0</i>
   <i type="int" name="FOURORBIT">     0</i>
   <i name="AEXX">      0.25000000</i>
   <i name="HFALPHA">     -1.00000000</i>
   <i name="MCALPHA">      0.00000000</i>
   <i name="ALDAX">      0.75000000</i>
   <i name="AGGAX">      0.75000000</i>
   <i name="ALDAC">      1.00000000</i>
   <i name="AGGAC">      1.00000000</i>
   <i type="int" name="NKREDX">     1</i>
   <i type="int" name="NKREDY">     1</i>
   <i type="int" name="NKREDZ">     1</i>
   <i type="logical" name="SHIFTRED"> F  </i>
   <i type="logical" name="ODDONLY"> F  </i>
   <i type="logical" name="EVENONLY"> F  </i>
   <i type="int" name="LMAXFOCK">     4</i>
   <i type="int" name="NMAXFOCKAE">     1</i>
   <i type="logical" name="LFOCKAEDFT"> F  </i>
   <i name="HFSCREEN">      0.20100000</i>
   <i name="HFSCREENC">      0.20100000</i>
   <i type="int" name="NBANDSGWLOW">     1</i>
  </separator>
  <separator name="vdW DFT" >
   <i type="logical" name="LUSE_VDW"> F  </i>
   <i name="Zab_VDW">     -0.84910000</i>
   <i name="PARAM1">      0.12340000</i>
   <i name="PARAM2">      1.00000000</i>
   <i name="PARAM3">      0.00000000</i>
  </separator>
  <separator name="model GW" >
   <i type="int" name="MODEL_GW">     0</i>
   <i name="MODEL_EPS0">     13.72059135</i>
   <i name="MODEL_ALPHA">      1.00000000</i>
  </separator>
  <separator name="linear response parameters" >
   <i type="logical" name="LEPSILON"> F  </i>
   <i type="logical" name="LRPA"> F  </i>
   <i type="logical" name="LNABLA"> F  </i>
   <i type="logical" name="LVEL"> F  </i>
   <i type="int" name="KINTER">     0</i>
   <i name="CSHIFT">      0.10000000</i>
   <i name="OMEGAMAX">     -1.00000000</i>
   <i name="DEG_THRESHOLD">      0.00200000</i>
   <i name="RTIME">     -0.10000000</i>
   <i name="WPLASMAI">      0.00000000</i>
   <v name="DFIELD">      0.00000000      0.00000000      0.00000000</v>
   <v name="WPLASMA">      0.00000000      0.00000000      0.00000000      0.00000000      0.00000000      0.00000000      0.00000000      0.00000000      0.00000000</v>
  </separator>
  <separator name="orbital magnetization" >
   <i type="logical" name="NUCIND"> F  </i>
   <v name="MAGPOS">      0.00000000      0.00000000      0.00000000</v>
   <i type="logical" name="LNICSALL"> T  </i>
   <i type="logical" name="ORBITALMAG"> F  </i>
   <i type="logical" name="LMAGBLOCH"> F  </i>
   <i type="logical" name="LCHIMAG"> F  </i>
   <i type="logical" name="LGAUGE"> T  </i>
   <i type="int" name="MAGATOM">     0</i>
   <v name="MAGDIPOL">      0.00000000      0.00000000      0.00000000</v>
   <v name="AVECCONST">      0.00000000      0.00000000      0.00000000</v>
  </separator>
  <separator name="response functions" >
   <i type="logical" name="LADDER"> F  </i>
   <i type="logical" name="LRPAFORCE"> F  </i>
   <i type="logical" name="LFXC"> F  </i>
   <i type="logical" name="LHARTREE"> T  </i>
   <i type="int" name="IBSE">     0</i>
   <v type="int" name="KPOINT">    -1     0     0     0</v>
   <i type="logical" name="LTCTE"> F  </i>
   <i type="logical" name="LTETE"> F  </i>
   <i type="logical" name="LTRIPLET"> F  </i>
   <i type="logical" name="LFXCEPS"> F  </i>
   <i type="logical" name="LFXHEG"> F  </i>
   <i type="int" name="NATURALO">     2</i>
   <i type="logical" name="L2ORDER"> F  </i>
   <i type="logical" name="LMP2LT"> F  </i>
   <i type="logical" name="LUSEW"> F  </i>
   <i name="ENCUTGW">     -2.00000000</i>
   <i name="ENCUTGWSOFT">     -2.00000000</i>
   <i name="ENCUTLF">     -1.00000000</i>
   <i type="int" name="LMAXMP2">    -1</i>
   <i name="SCISSOR">      0.00000000</i>
   <i type="int" name="NOMEGA">     0</i>
   <i type="int" name="NOMEGAR">     0</i>
   <i type="int" name="NBANDSGW">    -1</i>
   <i type="int" name="NBANDSO">    -1</i>
   <i type="int" name="NBANDSV">    -1</i>
   <i type="int" name="NELM">     1</i>
   <i type="int" name="NELMHF">     1</i>
   <i type="int" name="DIM">     3</i>
   <i type="int" name="ANTIRES">     0</i>
   <i name="OMEGAMAX">    -30.00000000</i>
   <i name="OMEGAMIN">    -30.00000000</i>
   <i name="OMEGATL">   -200.00000000</i>
   <i type="int" name="OMEGAGRID">   140</i>
   <i name="CSHIFT">     -0.10000000</i>
   <i type="logical" name="SELFENERGY"> F  </i>
   <i type="logical" name="LSPECTRAL"> F  </i>
   <i type="logical" name="LSPECTRALGW"> F  </i>
   <i type="logical" name="LSINGLES"> F  </i>
   <i type="logical" name="LFERMIGW"> F  </i>
   <i type="logical" name="ODDONLYGW"> F  </i>
   <i type="logical" name="EVENONLYGW"> F  </i>
   <i type="int" name="NKREDLFX">     1</i>
   <i type="int" name="NKREDLFY">     1</i>
   <i type="int" name="NKREDLFZ">     1</i>
   <i type="int" name="MAXMEM">  2800</i>
   <i type="int" name="TELESCOPE">     0</i>
   <i type="int" name="TAUPAR">     1</i>
   <i type="int" name="OMEGAPAR">    -1</i>
   <i name="LAMBDA">      1.00000000</i>
  </separator>
  <separator name="External order field" >
   <i name="OFIELD_KAPPA">      0.00000000</i>
   <v name="OFIELD_K">      0.00000000      0.00000000      0.00000000</v>
   <i name="OFIELD_Q6_NEAR">      0.00000000</i>
   <i name="OFIELD_Q6_FAR">      0.00000000</i>
   <i name="OFIELD_A">      0.00000000</i>
  </separator>
 </parameters>
 <atominfo>
  <atoms>       2 </atoms>
  <types>       2 </types>
  <array name="atoms" >
   <dimension dim="1">ion</dimension>
   <field type="string">element</field>
   <field type="int">atomtype</field>
   <set>
    <rc><c>Al</c><c>   1</c></rc>
    <rc><c>As</c><c>   2</c></rc>
   </set>
  </array>
  <array name="atomtypes" >
   <dimension dim="1">type</dimension>
   <field type="int">atomspertype</field>
   <field type="string">element</field>
   <field>mass</field>
   <field>valence</field>
   <field type="string">pseudopotential</field>
   <set>
    <rc><c>   1</c><c>Al</c><c>     26.98100000</c><c>      3.00000000</c><c>  PAW_PBE Al 04Jan2001                  </c></rc>
    <rc><c>   1</c><c>As</c><c>     74.92200000</c><c>      5.00000000</c><c>  PAW_PBE As 22Sep2009                  </c></rc>
   </set>
  </array>
 </atominfo>
 <structure name="initialpos" >
  <crystal>
   <varray name="basis" >
    <v>       2.83840171       2.83840171       0.00000000 </v>
    <v>       0.00000000       2.83840171       2.83840171 </v>
    <v>       2.83840171       0.00000000       2.83840171 </v>
   </varray>
   <i name="volume">     45.73530449 </i>
   <varray name="rec_basis" >
    <v>       0.17615547       0.17615547      -0.17615547 </v>
    <v>      -0.17615547       0.17615547       0.17615547 </v>
    <v>       0.17615547      -0.17615547       0.17615547 </v>
   </varray>
  </crystal>
  <varray name="positions" >
   <v>       0.00000000       0.00000000       0.00000000 </v>
   <v>       0.25000000       0.25000000       0.25000000 </v>
  </varray>
 </structure>
 <calculation>
  <scstep>
   <time name="dav">    0.57    0.57</time>
   <time name="total">    0.73    0.75</time>
   <energy>
    <i name="alphaZ">      8.10320538 </i>
    <i name="ewald">   -228.22232418 </i>
    <i name="hartreedc">    -17.48751064 </i>
    <i name="XCdc">    -30.62497707 </i>
    <i name="pawpsdc">    204.93309164 </i>
    <i name="pawaedc">   -162.34647536 </i>
    <i name="eentropy">     -0.00034381 </i>
    <i name="bandstr">     11.50888019 </i>
    <i name="atom">    221.54339135 </i>
    <i name="e_fr_energy">      7.40693751 </i>
    <i name="e_wo_entrp">      7.40728131 </i>
    <i name="e_0_energy">      7.40710941 </i>
   </energy>
  </scstep>
  <scstep>
   <time name="dav">    0.93    0.93</time>
   <time name="total">    0.93    0.93</time>
   <energy>
    <i name="e_fr_energy">      0.02756039 </i>
    <i name="e_wo_entrp">      0.02756039 </i>
    <i name="e_0_energy">      0.02756039 </i>
   </energy>
  </scstep>
  <scstep>
   <time name="dav">    0.58    0.59</time>
   <time name="total">    0.58    0.59</time>
   <energy>
    <i name="e_fr_energy">     -0.00868179 </i>
    <i name="e_wo_entrp">     -0.00868179 </i>
    <i name="e_0_energy">     -0.00868179 </i>
   </energy>
  </scstep>
  <scstep>
   <time name="dav">    1.44    1.44</time>
   <time name="total">    1.44    1.44</time>
   <energy>
    <i name="e_fr_energy">     -0.00872399 </i>
    <i name="e_wo_entrp">     -0.00872399 </i>
    <i name="e_0_energy">     -0.00872399 </i>
   </energy>
  </scstep>
  <scstep>
   <time name="dav">  180.35  180.42</time>
   <time name="total">  180.38  180.45</time>
   <energy>
    <i name="e_fr_energy">    -11.35563574 </i>
    <i name="e_wo_entrp">    -11.35563574 </i>
    <i name="e_0_energy">    -11.35563574 </i>
   </energy>
  </scstep>
  <scstep>
   <time name="dav">  176.21  176.34</time>
   <time name="total">  176.40  176.52</time>
   <energy>
    <i name="e_fr_energy">    -11.08498906 </i>
    <i name="e_wo_entrp">    -11.08498906 </i>
    <i name="e_0_energy">    -11.08498906 </i>
   </energy>
  </scstep>
  <scstep>
   <time name="dav">  199.46  199.53</time>
   <time name="total">  199.64  199.71</time>
   <energy>
    <i name="e_fr_energy">    -11.01315944 </i>
    <i name="e_wo_entrp">    -11.01315944 </i>
    <i name="e_0_energy">    -11.01315944 </i>
   </energy>
  </scstep>
  <scstep>
   <time name="dav">  208.06  209.22</time>
   <time name="total">  208.24  209.40</time>
   <energy>
    <i name="e_fr_energy">    -11.00049949 </i>
    <i name="e_wo_entrp">    -11.00049949 </i>
    <i name="e_0_energy">    -11.00049949 </i>
   </energy>
  </scstep>
  <scstep>
   <time name="dav">  186.36  186.47</time>
   <time name="total">  186.55  186.66</time>
   <energy>
    <i name="e_fr_energy">    -10.99677335 </i>
    <i name="e_wo_entrp">    -10.99677335 </i>
    <i name="e_0_energy">    -10.99677335 </i>
   </energy>
  </scstep>
  <scstep>
   <time name="dav">  212.75  214.97</time>
   <time name="total">  212.93  215.15</time>
   <energy>
    <i name="e_fr_energy">    -10.99560233 </i>
    <i name="e_wo_entrp">    -10.99560233 </i>
    <i name="e_0_energy">    -10.99560233 </i>
   </energy>
  </scstep>
  <scstep>
   <time name="dav">  192.54  192.79</time>
   <time name="total">  192.72  192.98</time>
   <energy>
    <i name="e_fr_energy">    -10.99531438 </i>
    <i name="e_wo_entrp">    -10.99531438 </i>
    <i name="e_0_energy">    -10.99531438 </i>
   </energy>
  </scstep>
  <scstep>
   <time name="dav">  193.45  193.71</time>
   <time name="total">  193.63  193.89</time>
   <energy>
    <i name="e_fr_energy">    -10.99527309 </i>
    <i name="e_wo_entrp">    -10.99527309 </i>
    <i name="e_0_energy">    -10.99527309 </i>
   </energy>
  </scstep>
  <scstep>
   <time name="dav">  184.28  184.39</time>
   <time name="total">  184.46  184.57</time>
   <energy>
    <i name="e_fr_energy">    -10.99528340 </i>
    <i name="e_wo_entrp">    -10.99528340 </i>
    <i name="e_0_energy">    -10.99528340 </i>
   </energy>
  </scstep>
  <scstep>
   <time name="dav">  186.10  186.13</time>
   <time name="total">  186.28  186.32</time>
   <energy>
    <i name="e_fr_energy">    -10.99529931 </i>
    <i name="e_wo_entrp">    -10.99529931 </i>
    <i name="e_0_energy">    -10.99529931 </i>
   </energy>
  </scstep>
  <scstep>
   <time name="dav">  184.57  184.66</time>
   <time name="total">  184.75  184.85</time>
   <energy>
    <i name="e_fr_energy">    -10.99531090 </i>
    <i name="e_wo_entrp">    -10.99531090 </i>
    <i name="e_0_energy">    -10.99531090 </i>
   </energy>
  </scstep>
  <scstep>
   <time name="dav">  181.52  181.55</time>
   <time name="total">  181.70  181.73</time>
   <energy>
    <i name="e_fr_energy">    -10.99531791 </i>
    <i name="e_wo_entrp">    -10.99531791 </i>
    <i name="e_0_energy">    -10.99531791 </i>
   </energy>
  </scstep>
  <scstep>
   <time name="dav">  182.58  183.31</time>
   <time name="total">  182.76  183.50</time>
   <energy>
    <i name="e_fr_energy">    -10.99532181 </i>
    <i name="e_wo_entrp">    -10.99532181 </i>
    <i name="e_0_energy">    -10.99532181 </i>
   </energy>
  </scstep>
  <scstep>
   <time name="dav">  182.65  182.72</time>
   <time name="total">  182.83  182.90</time>
   <energy>
    <i name="e_fr_energy">    -10.99532385 </i>
    <i name="e_wo_entrp">    -10.99532385 </i>
    <i name="e_0_energy">    -10.99532385 </i>
   </energy>
  </scstep>
  <scstep>
   <time name="dav">  177.12  177.17</time>
   <time name="total">  177.30  177.36</time>
   <energy>
    <i name="e_fr_energy">    -10.99532491 </i>
    <i name="e_wo_entrp">    -10.99532491 </i>
    <i name="e_0_energy">    -10.99532491 </i>
   </energy>
  </scstep>
  <scstep>
   <time name="dav">  172.81  173.94</time>
   <time name="total">  172.97  174.10</time>
   <energy>
    <i name="alphaZ">      8.10320538 </i>
    <i name="ewald">   -228.22232418 </i>
    <i name="hartreedc">    -22.16204782 </i>
    <i name="XCdc">    -30.05850789 </i>
    <i name="pawpsdc">   1848.62156551 </i>
    <i name="pawaedc">  -1806.19480567 </i>
    <i name="eentropy">     -0.00000000 </i>
    <i name="bandstr">    -13.90856263 </i>
    <i name="atom">    221.54339135 </i>
    <i name="e_fr_energy">    -10.99532544 </i>
    <i name="e_wo_entrp">    -10.99532544 </i>
    <i name="e_0_energy">    -10.99532544 </i>
   </energy>
  </scstep>
  <structure>
   <crystal>
    <varray name="basis" >
     <v>       2.83840171       2.83840171       0.00000000 </v>
     <v>       0.00000000       2.83840171       2.83840171 </v>
     <v>       2.83840171       0.00000000       2.83840171 </v>
    </varray>
    <i name="volume">     45.73530449 </i>
    <varray name="rec_basis" >
     <v>       0.17615547       0.17615547      -0.17615547 </v>
     <v>      -0.17615547       0.17615547       0.17615547 </v>
     <v>       0.17615547      -0.17615547       0.17615547 </v>
    </varray>
   </crystal>
   <varray name="positions" >
    <v>       0.00000000       0.00000000       0.00000000 </v>
    <v>       0.25000000       0.25000000       0.25000000 </v>
   </varray>
  </structure>
  <varray name="forces" >
   <v>       0.00000000       0.00000000       0.00000000 </v>
   <v>      -0.00000000      -0.00000000      -0.00000000 </v>
  </varray>
  <energy>
   <i name="e_fr_energy">    -10.99532544 </i>
   <i name="e_wo_entrp">    -10.99532544 </i>
   <i name="e_0_energy">     -0.00000000 </i>
  </energy>
  <time name="totalsc"> 3088.68 3095.57</time>
  <eigenvalues>
   <array>
    <dimension dim="1">band</dimension>
    <dimension dim="2">kpoint</dimension>
    <dimension dim="3">spin</dimension>
    <field>eigene</field>
    <field>occ</field>
    <set>
     <set comment="spin 1">
      <set comment="kpoint 1">
       <r>   -9.5223    1.0000 </r>
       <r>    1.8759    1.0000 </r>
       <r>    3.1803    1.0000 </r>
       <r>    3.1803    1.0000 </r>
       <r>    6.9540    0.0000 </r>
       <r>    8.7968    0.0000 </r>
       <r>    8.7968    0.0000 </r>
       <r>    8.9019    0.0000 </r>
       <r>   12.7926    0.0000 </r>
       <r>   12.7926    0.0000 </r>
       <r>   13.9577    0.0000 </r>
       <r>   15.2866    0.0000 </r>
       <r>   17.2039    0.0000 </r>
       <r>   17.2039    0.0000 </r>
       <r>   20.5022    0.0000 </r>
       <r>   26.2699    0.0000 </r>
       <r>   26.2699    0.0000 </r>
       <r>   26.4882    0.0000 </r>
       <r>   29.6302    0.0000 </r>
       <r>   29.6302    0.0000 </r>
       <r>   31.0230    0.0000 </r>
      </set>
      <set comment="kpoint 2">
       <r>   -8.7190    1.0000 </r>
       <r>   -0.9409    1.0000 </r>
       <r>    1.5817    1.0000 </r>
       <r>    2.8203    1.0000 </r>
       <r>    7.4955    0.0000 </r>
       <r>    9.1177    0.0000 </r>
       <r>    9.3128    0.0000 </r>
       <r>   10.7586    0.0000 </r>
       <r>   11.9496    0.0000 </r>
       <r>   14.2519    0.0000 </r>
       <r>   15.4096    0.0000 </r>
       <r>   17.4753    0.0000 </r>
       <r>   19.3070    0.0000 </r>
       <r>   19.8871    0.0000 </r>
       <r>   21.7405    0.0000 </r>
       <r>   23.2811    0.0000 </r>
       <r>   23.5672    0.0000 </r>
       <r>   25.4134    0.0000 </r>
       <r>   27.1851    0.0000 </r>
       <r>   28.1456    0.0000 </r>
       <r>   30.9510    0.0000 </r>
      </set>
      <set comment="kpoint 3">
       <r>   -8.0430    1.0000 </r>
       <r>   -2.5350    1.0000 </r>
       <r>    1.5477    1.0000 </r>
       <r>    2.1657    1.0000 </r>
       <r>    7.0449    0.0000 </r>
       <r>    8.6684    0.0000 </r>
       <r>    9.5852    0.0000 </r>
       <r>   12.2037    0.0000 </r>
       <r>   13.8627    0.0000 </r>
       <r>   16.0065    0.0000 </r>
       <r>   16.1491    0.0000 </r>
       <r>   17.0528    0.0000 </r>
       <r>   17.4649    0.0000 </r>
       <r>   20.1512    0.0000 </r>
       <r>   23.2529    0.0000 </r>
       <r>   24.3140    0.0000 </r>
       <r>   24.9856    0.0000 </r>
       <r>   26.0546    0.0000 </r>
       <r>   27.2233    0.0000 </r>
       <r>   27.4435    0.0000 </r>
       <r>   29.1248    0.0000 </r>
      </set>
      <set comment="kpoint 4">
       <r>   -9.0922    1.0000 </r>
       <r>    0.2777    1.0000 </r>
       <r>    2.4052    1.0000 </r>
       <r>    2.4642    1.0000 </r>
       <r>    7.4822    0.0000 </r>
       <r>    8.3670    0.0000 </r>
       <r>    9.8903    0.0000 </r>
       <r>   10.0006    0.0000 </r>
       <r>   11.9109    0.0000 </r>
       <r>   13.7726    0.0000 </r>
       <r>   15.0677    0.0000 </r>
       <r>   16.4878    0.0000 </r>
       <r>   17.9695    0.0000 </r>
       <r>   19.2130    0.0000 </r>
       <r>   22.6874    0.0000 </r>
       <r>   22.9716    0.0000 </r>
       <r>   23.6140    0.0000 </r>
       <r>   26.4596    0.0000 </r>
       <r>   26.8825    0.0000 </r>
       <r>   28.0907    0.0000 </r>
       <r>   31.4076    0.0000 </r>
      </set>
      <set comment="kpoint 5">
       <r>   -8.3389    1.0000 </r>
       <r>   -1.2397    1.0000 </r>
       <r>    1.2509    1.0000 </r>
       <r>    1.6065    1.0000 </r>
       <r>    6.5979    0.0000 </r>
       <r>    7.9232    0.0000 </r>
       <r>   10.9929    0.0000 </r>
       <r>   11.6695    0.0000 </r>
       <r>   14.1380    0.0000 </r>
       <r>   15.5683    0.0000 </r>
       <r>   16.8942    0.0000 </r>
       <r>   18.5224    0.0000 </r>
       <r>   18.7252    0.0000 </r>
       <r>   20.2308    0.0000 </r>
       <r>   20.3970    0.0000 </r>
       <r>   21.3568    0.0000 </r>
       <r>   23.6082    0.0000 </r>
       <r>   24.5694    0.0000 </r>
       <r>   27.3618    0.0000 </r>
       <r>   28.3087    0.0000 </r>
       <r>   29.5235    0.0000 </r>
      </set>
      <set comment="kpoint 6">
       <r>   -7.5781    1.0000 </r>
       <r>   -2.2393    1.0000 </r>
       <r>   -0.0995    1.0000 </r>
       <r>    0.9881    1.0000 </r>
       <r>    7.3254    0.0000 </r>
       <r>    9.3313    0.0000 </r>
       <r>   10.3917    0.0000 </r>
       <r>   12.5522    0.0000 </r>
       <r>   13.6092    0.0000 </r>
       <r>   16.1968    0.0000 </r>
       <r>   17.5097    0.0000 </r>
       <r>   18.8772    0.0000 </r>
       <r>   20.4408    0.0000 </r>
       <r>   21.0568    0.0000 </r>
       <r>   22.3410    0.0000 </r>
       <r>   22.8041    0.0000 </r>
       <r>   23.9085    0.0000 </r>
       <r>   24.7710    0.0000 </r>
       <r>   25.5018    0.0000 </r>
       <r>   26.5682    0.0000 </r>
       <r>   27.7678    0.0000 </r>
      </set>
      <set comment="kpoint 7">
       <r>   -8.1037    1.0000 </r>
       <r>   -1.8566    1.0000 </r>
       <r>    0.6301    1.0000 </r>
       <r>    1.8970    1.0000 </r>
       <r>    7.8352    0.0000 </r>
       <r>    8.6670    0.0000 </r>
       <r>   10.0631    0.0000 </r>
       <r>   11.2163    0.0000 </r>
       <r>   13.8003    0.0000 </r>
       <r>   15.0909    0.0000 </r>
       <r>   16.6501    0.0000 </r>
       <r>   18.0195    0.0000 </r>
       <r>   19.3248    0.0000 </r>
       <r>   20.1547    0.0000 </r>
       <r>   22.0840    0.0000 </r>
       <r>   23.3498    0.0000 </r>
       <r>   24.4301    0.0000 </r>
       <r>   25.4677    0.0000 </r>
       <r>   26.8403    0.0000 </r>
       <r>   27.4341    0.0000 </r>
       <r>   29.0506    0.0000 </r>
      </set>
      <set comment="kpoint 8">
       <r>   -7.6129    1.0000 </r>
       <r>   -2.3411    1.0000 </r>
       <r>    0.5198    1.0000 </r>
       <r>    1.1526    1.0000 </r>
       <r>    5.9295    0.0000 </r>
       <r>    7.2079    0.0000 </r>
       <r>   13.2819    0.0000 </r>
       <r>   13.5138    0.0000 </r>
       <r>   15.4741    0.0000 </r>
       <r>   16.3634    0.0000 </r>
       <r>   17.6522    0.0000 </r>
       <r>   17.9789    0.0000 </r>
       <r>   19.8700    0.0000 </r>
       <r>   20.4871    0.0000 </r>
       <r>   20.5238    0.0000 </r>
       <r>   22.8718    0.0000 </r>
       <r>   23.3398    0.0000 </r>
       <r>   24.0584    0.0000 </r>
       <r>   24.9640    0.0000 </r>
       <r>   26.5212    0.0000 </r>
       <r>   26.9955    0.0000 </r>
      </set>
      <set comment="kpoint 9">
       <r>   -8.4396    1.0000 </r>
       <r>   -2.0253    1.0000 </r>
       <r>    2.5562    1.0000 </r>
       <r>    2.5562    1.0000 </r>
       <r>    6.3830    0.0000 </r>
       <r>    9.0310    0.0000 </r>
       <r>    9.0310    0.0000 </r>
       <r>   12.0409    0.0000 </r>
       <r>   14.0688    0.0000 </r>
       <r>   14.0688    0.0000 </r>
       <r>   14.1512    0.0000 </r>
       <r>   18.8739    0.0000 </r>
       <r>   19.1770    0.0000 </r>
       <r>   19.1770    0.0000 </r>
       <r>   21.7082    0.0000 </r>
       <r>   23.1451    0.0000 </r>
       <r>   23.1451    0.0000 </r>
       <r>   26.5347    0.0000 </r>
       <r>   28.7735    0.0000 </r>
       <r>   29.6044    0.0000 </r>
       <r>   29.6044    0.0000 </r>
      </set>
      <set comment="kpoint 10">
       <r>   -7.7822    1.0000 </r>
       <r>   -2.2496    1.0000 </r>
       <r>   -0.0321    1.0000 </r>
       <r>    1.8920    1.0000 </r>
       <r>    6.9688    0.0000 </r>
       <r>   10.1596    0.0000 </r>
       <r>   10.8536    0.0000 </r>
       <r>   11.9004    0.0000 </r>
       <r>   13.0528    0.0000 </r>
       <r>   13.5165    0.0000 </r>
       <r>   17.0912    0.0000 </r>
       <r>   19.7024    0.0000 </r>
       <r>   20.3551    0.0000 </r>
       <r>   21.0121    0.0000 </r>
       <r>   21.5745    0.0000 </r>
       <r>   23.9293    0.0000 </r>
       <r>   24.3248    0.0000 </r>
       <r>   25.1543    0.0000 </r>
       <r>   26.4483    0.0000 </r>
       <r>   26.6957    0.0000 </r>
       <r>   29.0761    0.0000 </r>
      </set>
      <set comment="kpoint 11">
       <r>   -8.1110    1.0000 </r>
       <r>   -2.7408    1.0000 </r>
       <r>    2.4536    1.0000 </r>
       <r>    2.4536    1.0000 </r>
       <r>    6.2441    0.0000 </r>
       <r>    8.9046    0.0000 </r>
       <r>    8.9046    0.0000 </r>
       <r>   12.0504    0.0000 </r>
       <r>   15.6574    0.0000 </r>
       <r>   16.1744    0.0000 </r>
       <r>   16.1744    0.0000 </r>
       <r>   16.6036    0.0000 </r>
       <r>   16.6036    0.0000 </r>
       <r>   17.7275    0.0000 </r>
       <r>   24.3318    0.0000 </r>
       <r>   24.8215    0.0000 </r>
       <r>   26.3099    0.0000 </r>
       <r>   26.3099    0.0000 </r>
       <r>   26.7779    0.0000 </r>
       <r>   26.7779    0.0000 </r>
       <r>   29.8569    0.0000 </r>
      </set>
      <set comment="kpoint 12">
       <r>   -8.1207    1.0000 </r>
       <r>   -2.7211    1.0000 </r>
       <r>    2.4563    1.0000 </r>
       <r>    2.4563    1.0000 </r>
       <r>    6.2477    0.0000 </r>
       <r>    8.9083    0.0000 </r>
       <r>    8.9083    0.0000 </r>
       <r>   12.0526    0.0000 </r>
       <r>   15.5809    0.0000 </r>
       <r>   15.9267    0.0000 </r>
       <r>   15.9267    0.0000 </r>
       <r>   16.8636    0.0000 </r>
       <r>   16.8636    0.0000 </r>
       <r>   17.8028    0.0000 </r>
       <r>   23.9453    0.0000 </r>
       <r>   25.2199    0.0000 </r>
       <r>   25.9305    0.0000 </r>
       <r>   25.9305    0.0000 </r>
       <r>   27.1579    0.0000 </r>
       <r>   27.1579    0.0000 </r>
       <r>   29.6442    0.0000 </r>
      </set>
      <set comment="kpoint 13">
       <r>   -8.1495    1.0000 </r>
       <r>   -2.6625    1.0000 </r>
       <r>    2.4642    1.0000 </r>
       <r>    2.4642    1.0000 </r>
       <r>    6.2585    0.0000 </r>
       <r>    8.9191    0.0000 </r>
       <r>    8.9191    0.0000 </r>
       <r>   12.0587    0.0000 </r>
       <r>   15.3807    0.0000 </r>
       <r>   15.5538    0.0000 </r>
       <r>   15.5538    0.0000 </r>
       <r>   17.2717    0.0000 </r>
       <r>   17.2717    0.0000 </r>
       <r>   17.9981    0.0000 </r>
       <r>   23.4068    0.0000 </r>
       <r>   25.3892    0.0000 </r>
       <r>   25.3892    0.0000 </r>
       <r>   25.7929    0.0000 </r>
       <r>   27.6964    0.0000 </r>
       <r>   27.6964    0.0000 </r>
       <r>   29.1958    0.0000 </r>
      </set>
      <set comment="kpoint 14">
       <r>   -8.1958    1.0000 </r>
       <r>   -2.5664    1.0000 </r>
       <r>    2.4775    1.0000 </r>
       <r>    2.4775    1.0000 </r>
       <r>    6.2765    0.0000 </r>
       <r>    8.9368    0.0000 </r>
       <r>    8.9368    0.0000 </r>
       <r>   12.0666    0.0000 </r>
       <r>   15.1097    0.0000 </r>
       <r>   15.1808    0.0000 </r>
       <r>   15.1808    0.0000 </r>
       <r>   17.7062    0.0000 </r>
       <r>   17.7062    0.0000 </r>
       <r>   18.2548    0.0000 </r>
       <r>   22.8847    0.0000 </r>
       <r>   24.8428    0.0000 </r>
       <r>   24.8428    0.0000 </r>
       <r>   26.3649    0.0000 </r>
       <r>   28.2338    0.0000 </r>
       <r>   28.2338    0.0000 </r>
       <r>   28.6994    0.0000 </r>
      </set>
      <set comment="kpoint 15">
       <r>   -8.2576    1.0000 </r>
       <r>   -2.4351    1.0000 </r>
       <r>    2.4961    1.0000 </r>
       <r>    2.4961    1.0000 </r>
       <r>    6.3017    0.0000 </r>
       <r>    8.9607    0.0000 </r>
       <r>    8.9607    0.0000 </r>
       <r>   12.0730    0.0000 </r>
       <r>   14.8086    0.0000 </r>
       <r>   14.8198    0.0000 </r>
       <r>   14.8198    0.0000 </r>
       <r>   18.1540    0.0000 </r>
       <r>   18.1540    0.0000 </r>
       <r>   18.5204    0.0000 </r>
       <r>   22.4100    0.0000 </r>
       <r>   24.3034    0.0000 </r>
       <r>   24.3034    0.0000 </r>
       <r>   26.8586    0.0000 </r>
       <r>   28.2757    0.0000 </r>
       <r>   28.7423    0.0000 </r>
       <r>   28.7423    0.0000 </r>
      </set>
      <set comment="kpoint 16">
       <r>   -8.3322    1.0000 </r>
       <r>   -2.2713    1.0000 </r>
       <r>    2.5197    1.0000 </r>
       <r>    2.5197    1.0000 </r>
       <r>    6.3336    0.0000 </r>
       <r>    8.9897    0.0000 </r>
       <r>    8.9897    0.0000 </r>
       <r>   12.0709    0.0000 </r>
       <r>   14.4742    0.0000 </r>
       <r>   14.4742    0.0000 </r>
       <r>   14.5042    0.0000 </r>
       <r>   18.6081    0.0000 </r>
       <r>   18.6081    0.0000 </r>
       <r>   18.7440    0.0000 </r>
       <r>   22.0138    0.0000 </r>
       <r>   23.7765    0.0000 </r>
       <r>   23.7765    0.0000 </r>
       <r>   26.9914    0.0000 </r>
       <r>   28.2141    0.0000 </r>
       <r>   29.1882    0.0000 </r>
       <r>   29.1882    0.0000 </r>
      </set>
      <set comment="kpoint 17">
       <r>   -8.4171    1.0000 </r>
       <r>   -2.0780    1.0000 </r>
       <r>    2.5483    1.0000 </r>
       <r>    2.5483    1.0000 </r>
       <r>    6.3723    0.0000 </r>
       <r>    9.0224    0.0000 </r>
       <r>    9.0224    0.0000 </r>
       <r>   12.0505    0.0000 </r>
       <r>   14.1473    0.0000 </r>
       <r>   14.1473    0.0000 </r>
       <r>   14.2177    0.0000 </r>
       <r>   18.8664    0.0000 </r>
       <r>   19.0638    0.0000 </r>
       <r>   19.0638    0.0000 </r>
       <r>   21.7478    0.0000 </r>
       <r>   23.2683    0.0000 </r>
       <r>   23.2683    0.0000 </r>
       <r>   26.6504    0.0000 </r>
       <r>   28.6358    0.0000 </r>
       <r>   29.5361    0.0000 </r>
       <r>   29.5361    0.0000 </r>
      </set>
      <set comment="kpoint 18">
       <r>   -8.5094    1.0000 </r>
       <r>   -1.8580    1.0000 </r>
       <r>    2.5816    1.0000 </r>
       <r>    2.5816    1.0000 </r>
       <r>    6.4174    0.0000 </r>
       <r>    9.0572    0.0000 </r>
       <r>    9.0572    0.0000 </r>
       <r>   11.9972    0.0000 </r>
       <r>   13.8416    0.0000 </r>
       <r>   13.8416    0.0000 </r>
       <r>   13.9696    0.0000 </r>
       <r>   18.8315    0.0000 </r>
       <r>   19.5111    0.0000 </r>
       <r>   19.5111    0.0000 </r>
       <r>   21.6628    0.0000 </r>
       <r>   22.7888    0.0000 </r>
       <r>   22.7888    0.0000 </r>
       <r>   26.1643    0.0000 </r>
       <r>   29.2154    0.0000 </r>
       <r>   29.7638    0.0000 </r>
       <r>   29.7638    0.0000 </r>
      </set>
      <set comment="kpoint 19">
       <r>   -8.6067    1.0000 </r>
       <r>   -1.6142    1.0000 </r>
       <r>    2.6194    1.0000 </r>
       <r>    2.6194    1.0000 </r>
       <r>    6.4685    0.0000 </r>
       <r>    9.0915    0.0000 </r>
       <r>    9.0915    0.0000 </r>
       <r>   11.8937    0.0000 </r>
       <r>   13.5599    0.0000 </r>
       <r>   13.5599    0.0000 </r>
       <r>   13.7805    0.0000 </r>
       <r>   18.6303    0.0000 </r>
       <r>   19.9267    0.0000 </r>
       <r>   19.9267    0.0000 </r>
       <r>   21.7638    0.0000 </r>
       <r>   22.3613    0.0000 </r>
       <r>   22.3613    0.0000 </r>
       <r>   25.6520    0.0000 </r>
       <r>   29.8322    0.0000 </r>
       <r>   29.8842    0.0000 </r>
       <r>   29.8842    0.0000 </r>
      </set>
      <set comment="kpoint 20">
       <r>   -8.7066    1.0000 </r>
       <r>   -1.3493    1.0000 </r>
       <r>    2.6616    1.0000 </r>
       <r>    2.6616    1.0000 </r>
       <r>    6.5251    0.0000 </r>
       <r>    9.1232    0.0000 </r>
       <r>    9.1232    0.0000 </r>
       <r>   11.7285    0.0000 </r>
       <r>   13.3065    0.0000 </r>
       <r>   13.3065    0.0000 </r>
       <r>   13.6637    0.0000 </r>
       <r>   18.3086    0.0000 </r>
       <r>   20.2517    0.0000 </r>
       <r>   20.2517    0.0000 </r>
       <r>   21.9995    0.0000 </r>
       <r>   22.0479    0.0000 </r>
       <r>   22.0479    0.0000 </r>
       <r>   25.1435    0.0000 </r>
       <r>   29.9353    0.0000 </r>
       <r>   29.9353    0.0000 </r>
       <r>   30.4571    0.0000 </r>
      </set>
      <set comment="kpoint 21">
       <r>   -8.8072    1.0000 </r>
       <r>   -1.0657    1.0000 </r>
       <r>    2.7075    1.0000 </r>
       <r>    2.7075    1.0000 </r>
       <r>    6.5865    0.0000 </r>
       <r>    9.1482    0.0000 </r>
       <r>    9.1482    0.0000 </r>
       <r>   11.5030    0.0000 </r>
       <r>   13.0833    0.0000 </r>
       <r>   13.0833    0.0000 </r>
       <r>   13.6192    0.0000 </r>
       <r>   17.9205    0.0000 </r>
       <r>   20.3511    0.0000 </r>
       <r>   20.3511    0.0000 </r>
       <r>   21.9786    0.0000 </r>
       <r>   21.9786    0.0000 </r>
       <r>   22.3097    0.0000 </r>
       <r>   24.6572    0.0000 </r>
       <r>   29.9386    0.0000 </r>
       <r>   29.9386    0.0000 </r>
       <r>   31.0744    0.0000 </r>
      </set>
      <set comment="kpoint 22">
       <r>   -8.9068    1.0000 </r>
       <r>   -0.7657    1.0000 </r>
       <r>    2.7568    1.0000 </r>
       <r>    2.7568    1.0000 </r>
       <r>    6.6516    0.0000 </r>
       <r>    9.1634    0.0000 </r>
       <r>    9.1634    0.0000 </r>
       <r>   11.2301    0.0000 </r>
       <r>   12.8944    0.0000 </r>
       <r>   12.8944    0.0000 </r>
       <r>   13.6341    0.0000 </r>
       <r>   17.5031    0.0000 </r>
       <r>   20.1680    0.0000 </r>
       <r>   20.1680    0.0000 </r>
       <r>   22.2116    0.0000 </r>
       <r>   22.2116    0.0000 </r>
       <r>   22.6298    0.0000 </r>
       <r>   24.2234    0.0000 </r>
       <r>   29.9162    0.0000 </r>
       <r>   29.9162    0.0000 </r>
       <r>   31.4713    0.0000 </r>
      </set>
      <set comment="kpoint 23">
       <r>   -9.0040    1.0000 </r>
       <r>   -0.4514    1.0000 </r>
       <r>    2.8091    1.0000 </r>
       <r>    2.8091    1.0000 </r>
       <r>    6.7192    0.0000 </r>
       <r>    9.1654    0.0000 </r>
       <r>    9.1654    0.0000 </r>
       <r>   10.9260    0.0000 </r>
       <r>   12.7447    0.0000 </r>
       <r>   12.7447    0.0000 </r>
       <r>   13.6923    0.0000 </r>
       <r>   17.0790    0.0000 </r>
       <r>   19.8307    0.0000 </r>
       <r>   19.8307    0.0000 </r>
       <r>   22.6209    0.0000 </r>
       <r>   22.6209    0.0000 </r>
       <r>   22.8386    0.0000 </r>
       <r>   23.9450    0.0000 </r>
       <r>   29.8803    0.0000 </r>
       <r>   29.8803    0.0000 </r>
       <r>   31.4103    0.0000 </r>
      </set>
      <set comment="kpoint 24">
       <r>   -9.0976    1.0000 </r>
       <r>   -0.1248    1.0000 </r>
       <r>    2.8636    1.0000 </r>
       <r>    2.8636    1.0000 </r>
       <r>    6.7873    0.0000 </r>
       <r>    9.1515    0.0000 </r>
       <r>    9.1515    0.0000 </r>
       <r>   10.6041    0.0000 </r>
       <r>   12.6366    0.0000 </r>
       <r>   12.6366    0.0000 </r>
       <r>   13.7792    0.0000 </r>
       <r>   16.6628    0.0000 </r>
       <r>   19.4390    0.0000 </r>
       <r>   19.4390    0.0000 </r>
       <r>   22.7291    0.0000 </r>
       <r>   23.1057    0.0000 </r>
       <r>   23.1057    0.0000 </r>
       <r>   24.0185    0.0000 </r>
       <r>   29.8374    0.0000 </r>
       <r>   29.8374    0.0000 </r>
       <r>   31.3470    0.0000 </r>
      </set>
      <set comment="kpoint 25">
       <r>   -9.1864    1.0000 </r>
       <r>    0.2119    1.0000 </r>
       <r>    2.9197    1.0000 </r>
       <r>    2.9197    1.0000 </r>
       <r>    6.8530    0.0000 </r>
       <r>    9.1204    0.0000 </r>
       <r>    9.1204    0.0000 </r>
       <r>   10.2748    0.0000 </r>
       <r>   12.5715    0.0000 </r>
       <r>   12.5715    0.0000 </r>
       <r>   13.8818    0.0000 </r>
       <r>   16.2667    0.0000 </r>
       <r>   19.0313    0.0000 </r>
       <r>   19.0313    0.0000 </r>
       <r>   22.3862    0.0000 </r>
       <r>   23.6264    0.0000 </r>
       <r>   23.6264    0.0000 </r>
       <r>   24.3516    0.0000 </r>
       <r>   29.7915    0.0000 </r>
       <r>   29.7915    0.0000 </r>
       <r>   31.2838    0.0000 </r>
      </set>
      <set comment="kpoint 26">
       <r>   -9.2697    1.0000 </r>
       <r>    0.5567    1.0000 </r>
       <r>    2.9767    1.0000 </r>
       <r>    2.9767    1.0000 </r>
       <r>    6.9126    0.0000 </r>
       <r>    9.0724    0.0000 </r>
       <r>    9.0724    0.0000 </r>
       <r>    9.9471    0.0000 </r>
       <r>   12.5495    0.0000 </r>
       <r>   12.5495    0.0000 </r>
       <r>   13.9863    0.0000 </r>
       <r>   15.9047    0.0000 </r>
       <r>   18.6245    0.0000 </r>
       <r>   18.6245    0.0000 </r>
       <r>   21.9814    0.0000 </r>
       <r>   24.1677    0.0000 </r>
       <r>   24.1677    0.0000 </r>
       <r>   24.7705    0.0000 </r>
       <r>   29.7467    0.0000 </r>
       <r>   29.7467    0.0000 </r>
       <r>   31.2225    0.0000 </r>
      </set>
      <set comment="kpoint 27">
       <r>   -9.3468    1.0000 </r>
       <r>    0.9072    1.0000 </r>
       <r>    3.0335    1.0000 </r>
       <r>    3.0335    1.0000 </r>
       <r>    6.9602    0.0000 </r>
       <r>    9.0100    0.0000 </r>
       <r>    9.0100    0.0000 </r>
       <r>    9.6298    0.0000 </r>
       <r>   12.5693    0.0000 </r>
       <r>   12.5693    0.0000 </r>
       <r>   14.0722    0.0000 </r>
       <r>   15.5971    0.0000 </r>
       <r>   18.2260    0.0000 </r>
       <r>   18.2260    0.0000 </r>
       <r>   21.5688    0.0000 </r>
       <r>   24.7229    0.0000 </r>
       <r>   24.7229    0.0000 </r>
       <r>   25.2197    0.0000 </r>
       <r>   29.7072    0.0000 </r>
       <r>   29.7072    0.0000 </r>
       <r>   31.1649    0.0000 </r>
      </set>
      <set comment="kpoint 28">
       <r>   -9.4171    1.0000 </r>
       <r>    1.2607    1.0000 </r>
       <r>    3.0892    1.0000 </r>
       <r>    3.0892    1.0000 </r>
       <r>    6.9876    0.0000 </r>
       <r>    8.9367    0.0000 </r>
       <r>    8.9367    0.0000 </r>
       <r>    9.3330    0.0000 </r>
       <r>   12.6247    0.0000 </r>
       <r>   12.6247    0.0000 </r>
       <r>   14.1064    0.0000 </r>
       <r>   15.3769    0.0000 </r>
       <r>   17.8394    0.0000 </r>
       <r>   17.8394    0.0000 </r>
       <r>   21.1649    0.0000 </r>
       <r>   25.2846    0.0000 </r>
       <r>   25.2846    0.0000 </r>
       <r>   25.6800    0.0000 </r>
       <r>   29.6711    0.0000 </r>
       <r>   29.6711    0.0000 </r>
       <r>   31.1100    0.0000 </r>
      </set>
      <set comment="kpoint 29">
       <r>   -9.4801    1.0000 </r>
       <r>    1.6138    1.0000 </r>
       <r>    3.1425    1.0000 </r>
       <r>    3.1425    1.0000 </r>
       <r>    6.9841    0.0000 </r>
       <r>    8.8573    0.0000 </r>
       <r>    8.8573    0.0000 </r>
       <r>    9.0694    0.0000 </r>
       <r>   12.7112    0.0000 </r>
       <r>   12.7112    0.0000 </r>
       <r>   14.0539    0.0000 </r>
       <r>   15.2794    0.0000 </r>
       <r>   17.4689    0.0000 </r>
       <r>   17.4689    0.0000 </r>
       <r>   20.7778    0.0000 </r>
       <r>   25.8487    0.0000 </r>
       <r>   25.8487    0.0000 </r>
       <r>   26.1426    0.0000 </r>
       <r>   29.6434    0.0000 </r>
       <r>   29.6434    0.0000 </r>
       <r>   31.0589    0.0000 </r>
      </set>
      <set comment="kpoint 30">
       <r>   -9.5354    1.0000 </r>
       <r>    1.9622    1.0000 </r>
       <r>    3.1924    1.0000 </r>
       <r>    3.1924    1.0000 </r>
       <r>    6.9378    0.0000 </r>
       <r>    8.7769    0.0000 </r>
       <r>    8.7769    0.0000 </r>
       <r>    8.8527    0.0000 </r>
       <r>   12.8223    0.0000 </r>
       <r>   12.8223    0.0000 </r>
       <r>   13.9181    0.0000 </r>
       <r>   15.3008    0.0000 </r>
       <r>   17.1183    0.0000 </r>
       <r>   17.1183    0.0000 </r>
       <r>   20.4136    0.0000 </r>
       <r>   26.4093    0.0000 </r>
       <r>   26.4093    0.0000 </r>
       <r>   26.6022    0.0000 </r>
       <r>   29.6277    0.0000 </r>
       <r>   29.6277    0.0000 </r>
       <r>   31.0115    0.0000 </r>
      </set>
      <set comment="kpoint 31">
       <r>   -9.5826    1.0000 </r>
       <r>    2.2998    1.0000 </r>
       <r>    3.2375    1.0000 </r>
       <r>    3.2375    1.0000 </r>
       <r>    6.8415    0.0000 </r>
       <r>    8.6931    0.0000 </r>
       <r>    8.7002    0.0000 </r>
       <r>    8.7002    0.0000 </r>
       <r>   12.9506    0.0000 </r>
       <r>   12.9506    0.0000 </r>
       <r>   13.7424    0.0000 </r>
       <r>   15.3961    0.0000 </r>
       <r>   16.7925    0.0000 </r>
       <r>   16.7925    0.0000 </r>
       <r>   20.0780    0.0000 </r>
       <r>   26.9569    0.0000 </r>
       <r>   26.9569    0.0000 </r>
       <r>   27.0518    0.0000 </r>
       <r>   29.6302    0.0000 </r>
       <r>   29.6302    0.0000 </r>
       <r>   30.9671    0.0000 </r>
      </set>
      <set comment="kpoint 32">
       <r>   -9.6216    1.0000 </r>
       <r>    2.6178    1.0000 </r>
       <r>    3.2765    1.0000 </r>
       <r>    3.2765    1.0000 </r>
       <r>    6.7001    0.0000 </r>
       <r>    8.5906    0.0000 </r>
       <r>    8.6314    0.0000 </r>
       <r>    8.6314    0.0000 </r>
       <r>   13.0869    0.0000 </r>
       <r>   13.0869    0.0000 </r>
       <r>   13.5664    0.0000 </r>
       <r>   15.5226    0.0000 </r>
       <r>   16.4978    0.0000 </r>
       <r>   16.4978    0.0000 </r>
       <r>   19.7786    0.0000 </r>
       <r>   27.4745    0.0000 </r>
       <r>   27.4745    0.0000 </r>
       <r>   27.4819    0.0000 </r>
       <r>   29.6612    0.0000 </r>
       <r>   29.6612    0.0000 </r>
       <r>   30.9229    0.0000 </r>
      </set>
      <set comment="kpoint 33">
       <r>   -9.6522    1.0000 </r>
       <r>    2.9033    1.0000 </r>
       <r>    3.3084    1.0000 </r>
       <r>    3.3084    1.0000 </r>
       <r>    6.5341    0.0000 </r>
       <r>    8.5342    0.0000 </r>
       <r>    8.5741    0.0000 </r>
       <r>    8.5741    0.0000 </r>
       <r>   13.2199    0.0000 </r>
       <r>   13.2199    0.0000 </r>
       <r>   13.4135    0.0000 </r>
       <r>   15.6521    0.0000 </r>
       <r>   16.2437    0.0000 </r>
       <r>   16.2437    0.0000 </r>
       <r>   19.5248    0.0000 </r>
       <r>   27.8811    0.0000 </r>
       <r>   27.9332    0.0000 </r>
       <r>   27.9332    0.0000 </r>
       <r>   29.7396    0.0000 </r>
       <r>   29.7396    0.0000 </r>
       <r>   30.8741    0.0000 </r>
      </set>
      <set comment="kpoint 34">
       <r>   -9.6741    1.0000 </r>
       <r>    3.1374    1.0000 </r>
       <r>    3.3320    1.0000 </r>
       <r>    3.3320    1.0000 </r>
       <r>    6.3747    0.0000 </r>
       <r>    8.5079    0.0000 </r>
       <r>    8.5312    0.0000 </r>
       <r>    8.5312    0.0000 </r>
       <r>   13.2967    0.0000 </r>
       <r>   13.3352    0.0000 </r>
       <r>   13.3352    0.0000 </r>
       <r>   15.7635    0.0000 </r>
       <r>   16.0430    0.0000 </r>
       <r>   16.0430    0.0000 </r>
       <r>   19.3287    0.0000 </r>
       <r>   28.2267    0.0000 </r>
       <r>   28.2891    0.0000 </r>
       <r>   28.2891    0.0000 </r>
       <r>   29.8882    0.0000 </r>
       <r>   29.8882    0.0000 </r>
       <r>   35.2468    0.0000 </r>
      </set>
      <set comment="kpoint 35">
       <r>   -9.6873    1.0000 </r>
       <r>    3.2951    1.0000 </r>
       <r>    3.3465    1.0000 </r>
       <r>    3.3465    1.0000 </r>
       <r>    6.2575    0.0000 </r>
       <r>    8.4979    0.0000 </r>
       <r>    8.5045    0.0000 </r>
       <r>    8.5045    0.0000 </r>
       <r>   13.2238    0.0000 </r>
       <r>   13.4151    0.0000 </r>
       <r>   13.4151    0.0000 </r>
       <r>   15.8392    0.0000 </r>
       <r>   15.9120    0.0000 </r>
       <r>   15.9120    0.0000 </r>
       <r>   19.2035    0.0000 </r>
       <r>   28.4775    0.0000 </r>
       <r>   28.5039    0.0000 </r>
       <r>   28.5039    0.0000 </r>
       <r>   30.0966    0.0000 </r>
       <r>   30.0966    0.0000 </r>
       <r>   30.7220    0.0000 </r>
      </set>
      <set comment="kpoint 36">
       <r>   -9.6917    1.0000 </r>
       <r>    3.3514    1.0000 </r>
       <r>    3.3514    1.0000 </r>
       <r>    3.3514    1.0000 </r>
       <r>    6.2140    0.0000 </r>
       <r>    8.4955    0.0000 </r>
       <r>    8.4955    0.0000 </r>
       <r>    8.4955    0.0000 </r>
       <r>   13.1990    0.0000 </r>
       <r>   13.4441    0.0000 </r>
       <r>   13.4441    0.0000 </r>
       <r>   15.8661    0.0000 </r>
       <r>   15.8661    0.0000 </r>
       <r>   15.8661    0.0000 </r>
       <r>   19.1602    0.0000 </r>
       <r>   28.5729    0.0000 </r>
       <r>   28.5729    0.0000 </r>
       <r>   28.5729    0.0000 </r>
       <r>   30.2325    0.0000 </r>
       <r>   30.2325    0.0000 </r>
       <r>   30.6363    0.0000 </r>
      </set>
      <set comment="kpoint 37">
       <r>   -9.6858    1.0000 </r>
       <r>    3.2957    1.0000 </r>
       <r>    3.3351    1.0000 </r>
       <r>    3.3351    1.0000 </r>
       <r>    6.2724    0.0000 </r>
       <r>    8.4731    0.0000 </r>
       <r>    8.5202    0.0000 </r>
       <r>    8.5202    0.0000 </r>
       <r>   13.2309    0.0000 </r>
       <r>   13.3619    0.0000 </r>
       <r>   13.4515    0.0000 </r>
       <r>   15.8787    0.0000 </r>
       <r>   15.8787    0.0000 </r>
       <r>   15.9256    0.0000 </r>
       <r>   19.2183    0.0000 </r>
       <r>   28.4282    0.0000 </r>
       <r>   28.4282    0.0000 </r>
       <r>   28.5651    0.0000 </r>
       <r>   30.0349    0.0000 </r>
       <r>   30.0516    0.0000 </r>
       <r>   30.7114    0.0000 </r>
      </set>
      <set comment="kpoint 38">
       <r>   -9.6682    1.0000 </r>
       <r>    3.1409    1.0000 </r>
       <r>    3.2875    1.0000 </r>
       <r>    3.2875    1.0000 </r>
       <r>    6.4348    0.0000 </r>
       <r>    8.4078    0.0000 </r>
       <r>    8.5931    0.0000 </r>
       <r>    8.5932    0.0000 </r>
       <r>   13.1273    0.0000 </r>
       <r>   13.3402    0.0000 </r>
       <r>   13.4737    0.0000 </r>
       <r>   15.9166    0.0000 </r>
       <r>   15.9166    0.0000 </r>
       <r>   16.0775    0.0000 </r>
       <r>   19.3913    0.0000 </r>
       <r>   28.0646    0.0000 </r>
       <r>   28.0646    0.0000 </r>
       <r>   28.5342    0.0000 </r>
       <r>   29.5817    0.0000 </r>
       <r>   29.7605    0.0000 </r>
       <r>   30.8666    0.0000 </r>
      </set>
      <set comment="kpoint 39">
       <r>   -9.6390    1.0000 </r>
       <r>    2.9140    1.0000 </r>
       <r>    3.2115    1.0000 </r>
       <r>    3.2115    1.0000 </r>
       <r>    6.6724    0.0000 </r>
       <r>    8.3051    0.0000 </r>
       <r>    8.7112    0.0000 </r>
       <r>    8.7112    0.0000 </r>
       <r>   12.8172    0.0000 </r>
       <r>   13.5000    0.0000 </r>
       <r>   13.5108    0.0000 </r>
       <r>   15.9797    0.0000 </r>
       <r>   15.9797    0.0000 </r>
       <r>   16.2730    0.0000 </r>
       <r>   19.6743    0.0000 </r>
       <r>   27.5878    0.0000 </r>
       <r>   27.5878    0.0000 </r>
       <r>   28.4548    0.0000 </r>
       <r>   29.0319    0.0000 </r>
       <r>   29.4920    0.0000 </r>
       <r>   31.0131    0.0000 </r>
      </set>
      <set comment="kpoint 40">
       <r>   -9.5982    1.0000 </r>
       <r>    2.6406    1.0000 </r>
       <r>    3.1114    1.0000 </r>
       <r>    3.1114    1.0000 </r>
       <r>    6.9560    0.0000 </r>
       <r>    8.1722    0.0000 </r>
       <r>    8.8700    0.0000 </r>
       <r>    8.8700    0.0000 </r>
       <r>   12.4663    0.0000 </r>
       <r>   13.5626    0.0000 </r>
       <r>   13.7151    0.0000 </r>
       <r>   16.0682    0.0000 </r>
       <r>   16.0682    0.0000 </r>
       <r>   16.4786    0.0000 </r>
       <r>   20.0574    0.0000 </r>
       <r>   27.0585    0.0000 </r>
       <r>   27.0585    0.0000 </r>
       <r>   28.2853    0.0000 </r>
       <r>   28.4490    0.0000 </r>
       <r>   29.3050    0.0000 </r>
       <r>   31.1292    0.0000 </r>
      </set>
      <set comment="kpoint 41">
       <r>   -9.5461    1.0000 </r>
       <r>    2.3393    1.0000 </r>
       <r>    2.9921    1.0000 </r>
       <r>    2.9921    1.0000 </r>
       <r>    7.2611    0.0000 </r>
       <r>    8.0170    0.0000 </r>
       <r>    9.0641    0.0000 </r>
       <r>    9.0641    0.0000 </r>
       <r>   12.1090    0.0000 </r>
       <r>   13.6293    0.0000 </r>
       <r>   13.9758    0.0000 </r>
       <r>   16.1819    0.0000 </r>
       <r>   16.1819    0.0000 </r>
       <r>   16.6804    0.0000 </r>
       <r>   20.5266    0.0000 </r>
       <r>   26.5046    0.0000 </r>
       <r>   26.5046    0.0000 </r>
       <r>   27.8562    0.0000 </r>
       <r>   28.0088    0.0000 </r>
       <r>   29.2229    0.0000 </r>
       <r>   31.2243    0.0000 </r>
      </set>
      <set comment="kpoint 42">
       <r>   -9.4829    1.0000 </r>
       <r>    2.0220    1.0000 </r>
       <r>    2.8586    1.0000 </r>
       <r>    2.8586    1.0000 </r>
       <r>    7.5660    0.0000 </r>
       <r>    7.8463    0.0000 </r>
       <r>    9.2886    0.0000 </r>
       <r>    9.2886    0.0000 </r>
       <r>   11.7716    0.0000 </r>
       <r>   13.7107    0.0000 </r>
       <r>   14.2744    0.0000 </r>
       <r>   16.3210    0.0000 </r>
       <r>   16.3210    0.0000 </r>
       <r>   16.8772    0.0000 </r>
       <r>   21.0659    0.0000 </r>
       <r>   25.9428    0.0000 </r>
       <r>   25.9428    0.0000 </r>
       <r>   27.2634    0.0000 </r>
       <r>   27.6570    0.0000 </r>
       <r>   29.2201    0.0000 </r>
       <r>   31.3097    0.0000 </r>
      </set>
      <set comment="kpoint 43">
       <r>   -9.4088    1.0000 </r>
       <r>    1.6961    1.0000 </r>
       <r>    2.7156    1.0000 </r>
       <r>    2.7156    1.0000 </r>
       <r>    7.6660    0.0000 </r>
       <r>    7.8472    0.0000 </r>
       <r>    9.5385    0.0000 </r>
       <r>    9.5386    0.0000 </r>
       <r>   11.4818    0.0000 </r>
       <r>   13.8069    0.0000 </r>
       <r>   14.6042    0.0000 </r>
       <r>   16.4854    0.0000 </r>
       <r>   16.4854    0.0000 </r>
       <r>   17.0730    0.0000 </r>
       <r>   21.6609    0.0000 </r>
       <r>   25.3799    0.0000 </r>
       <r>   25.3799    0.0000 </r>
       <r>   26.6756    0.0000 </r>
       <r>   27.2658    0.0000 </r>
       <r>   29.2659    0.0000 </r>
       <r>   31.3918    0.0000 </r>
      </set>
      <set comment="kpoint 44">
       <r>   -9.3243    1.0000 </r>
       <r>    1.3666    1.0000 </r>
       <r>    2.5668    1.0000 </r>
       <r>    2.5668    1.0000 </r>
       <r>    7.4810    0.0000 </r>
       <r>    8.0753    0.0000 </r>
       <r>    9.8095    0.0000 </r>
       <r>    9.8095    0.0000 </r>
       <r>   11.2694    0.0000 </r>
       <r>   13.9178    0.0000 </r>
       <r>   14.9594    0.0000 </r>
       <r>   16.6748    0.0000 </r>
       <r>   16.6748    0.0000 </r>
       <r>   17.2724    0.0000 </r>
       <r>   22.2982    0.0000 </r>
       <r>   24.8204    0.0000 </r>
       <r>   24.8204    0.0000 </r>
       <r>   26.0954    0.0000 </r>
       <r>   26.8559    0.0000 </r>
       <r>   29.3433    0.0000 </r>
       <r>   31.4726    0.0000 </r>
      </set>
      <set comment="kpoint 45">
       <r>   -9.2298    1.0000 </r>
       <r>    1.0368    1.0000 </r>
       <r>    2.4159    1.0000 </r>
       <r>    2.4159    1.0000 </r>
       <r>    7.2949    0.0000 </r>
       <r>    8.2176    0.0000 </r>
       <r>   10.0979    0.0000 </r>
       <r>   10.0979    0.0000 </r>
       <r>   11.1689    0.0000 </r>
       <r>   14.0434    0.0000 </r>
       <r>   15.3349    0.0000 </r>
       <r>   16.8890    0.0000 </r>
       <r>   16.8890    0.0000 </r>
       <r>   17.4804    0.0000 </r>
       <r>   22.9656    0.0000 </r>
       <r>   24.2684    0.0000 </r>
       <r>   24.2684    0.0000 </r>
       <r>   25.5244    0.0000 </r>
       <r>   26.4416    0.0000 </r>
       <r>   29.4463    0.0000 </r>
       <r>   31.5529    0.0000 </r>
      </set>
      <set comment="kpoint 46">
       <r>   -9.1259    1.0000 </r>
       <r>    0.7089    1.0000 </r>
       <r>    2.2655    1.0000 </r>
       <r>    2.2655    1.0000 </r>
       <r>    7.1105    0.0000 </r>
       <r>    8.2509    0.0000 </r>
       <r>   10.4006    0.0000 </r>
       <r>   10.4006    0.0000 </r>
       <r>   11.2045    0.0000 </r>
       <r>   14.1836    0.0000 </r>
       <r>   15.7257    0.0000 </r>
       <r>   17.1277    0.0000 </r>
       <r>   17.1277    0.0000 </r>
       <r>   17.7018    0.0000 </r>
       <r>   23.6485    0.0000 </r>
       <r>   23.7264    0.0000 </r>
       <r>   23.7264    0.0000 </r>
       <r>   24.9637    0.0000 </r>
       <r>   26.0378    0.0000 </r>
       <r>   29.5721    0.0000 </r>
       <r>   31.6289    0.0000 </r>
      </set>
      <set comment="kpoint 47">
       <r>   -9.0133    1.0000 </r>
       <r>    0.3847    1.0000 </r>
       <r>    2.1180    1.0000 </r>
       <r>    2.1180    1.0000 </r>
       <r>    6.9301    0.0000 </r>
       <r>    8.1798    0.0000 </r>
       <r>   10.7148    0.0000 </r>
       <r>   10.7148    0.0000 </r>
       <r>   11.3714    0.0000 </r>
       <r>   14.3385    0.0000 </r>
       <r>   16.1268    0.0000 </r>
       <r>   17.3889    0.0000 </r>
       <r>   17.3889    0.0000 </r>
       <r>   17.9381    0.0000 </r>
       <r>   23.1962    0.0000 </r>
       <r>   23.1962    0.0000 </r>
       <r>   24.3089    0.0000 </r>
       <r>   24.4141    0.0000 </r>
       <r>   25.6770    0.0000 </r>
       <r>   29.7202    0.0000 </r>
       <r>   31.6900    0.0000 </r>
      </set>
      <set comment="kpoint 48">
       <r>   -8.8927    1.0000 </r>
       <r>    0.0658    1.0000 </r>
       <r>    1.9752    1.0000 </r>
       <r>    1.9752    1.0000 </r>
       <r>    6.7552    0.0000 </r>
       <r>    8.0332    0.0000 </r>
       <r>   11.0383    0.0000 </r>
       <r>   11.0383    0.0000 </r>
       <r>   11.6410    0.0000 </r>
       <r>   14.5072    0.0000 </r>
       <r>   16.5324    0.0000 </r>
       <r>   17.6707    0.0000 </r>
       <r>   17.6707    0.0000 </r>
       <r>   18.1935    0.0000 </r>
       <r>   22.6810    0.0000 </r>
       <r>   22.6810    0.0000 </r>
       <r>   23.8746    0.0000 </r>
       <r>   24.7386    0.0000 </r>
       <r>   25.5660    0.0000 </r>
       <r>   29.8901    0.0000 </r>
       <r>   31.7119    0.0000 </r>
      </set>
      <set comment="kpoint 49">
       <r>   -8.7652    1.0000 </r>
       <r>   -0.2464    1.0000 </r>
       <r>    1.8388    1.0000 </r>
       <r>    1.8388    1.0000 </r>
       <r>    6.5871    0.0000 </r>
       <r>    7.8443    0.0000 </r>
       <r>   11.3692    0.0000 </r>
       <r>   11.3692    0.0000 </r>
       <r>   11.9803    0.0000 </r>
       <r>   14.6911    0.0000 </r>
       <r>   16.9353    0.0000 </r>
       <r>   17.9693    0.0000 </r>
       <r>   17.9693    0.0000 </r>
       <r>   18.4713    0.0000 </r>
       <r>   22.1861    0.0000 </r>
       <r>   22.1861    0.0000 </r>
       <r>   23.3486    0.0000 </r>
       <r>   24.5901    0.0000 </r>
       <r>   26.0485    0.0000 </r>
       <r>   30.0898    0.0000 </r>
       <r>   31.5079    0.0000 </r>
      </set>
      <set comment="kpoint 50">
       <r>   -8.6321    1.0000 </r>
       <r>   -0.5502    1.0000 </r>
       <r>    1.7100    1.0000 </r>
       <r>    1.7100    1.0000 </r>
       <r>    6.4271    0.0000 </r>
       <r>    7.6384    0.0000 </r>
       <r>   11.7065    0.0000 </r>
       <r>   11.7065    0.0000 </r>
       <r>   12.3638    0.0000 </r>
       <r>   14.8893    0.0000 </r>
       <r>   17.3265    0.0000 </r>
       <r>   18.2772    0.0000 </r>
       <r>   18.2772    0.0000 </r>
       <r>   18.7759    0.0000 </r>
       <r>   21.7187    0.0000 </r>
       <r>   21.7187    0.0000 </r>
       <r>   22.8349    0.0000 </r>
       <r>   24.2658    0.0000 </r>
       <r>   26.7171    0.0000 </r>
       <r>   30.3241    0.0000 </r>
       <r>   31.0236    0.0000 </r>
      </set>
      <set comment="kpoint 51">
       <r>   -8.4947    1.0000 </r>
       <r>   -0.8441    1.0000 </r>
       <r>    1.5898    1.0000 </r>
       <r>    1.5898    1.0000 </r>
       <r>    6.2760    0.0000 </r>
       <r>    7.4314    0.0000 </r>
       <r>   12.0485    0.0000 </r>
       <r>   12.0485    0.0000 </r>
       <r>   12.7743    0.0000 </r>
       <r>   15.1024    0.0000 </r>
       <r>   17.6943    0.0000 </r>
       <r>   18.5784    0.0000 </r>
       <r>   18.5784    0.0000 </r>
       <r>   19.1106    0.0000 </r>
       <r>   21.2954    0.0000 </r>
       <r>   21.2954    0.0000 </r>
       <r>   22.3351    0.0000 </r>
       <r>   23.9372    0.0000 </r>
       <r>   27.3867    0.0000 </r>
       <r>   30.4509    0.0000 </r>
       <r>   30.6180    0.0000 </r>
      </set>
      <set comment="kpoint 52">
       <r>   -8.3548    1.0000 </r>
       <r>   -1.1261    1.0000 </r>
       <r>    1.4791    1.0000 </r>
       <r>    1.4791    1.0000 </r>
       <r>    6.1346    0.0000 </r>
       <r>    7.2336    0.0000 </r>
       <r>   12.3939    0.0000 </r>
       <r>   12.3939    0.0000 </r>
       <r>   13.2004    0.0000 </r>
       <r>   15.3293    0.0000 </r>
       <r>   18.0247    0.0000 </r>
       <r>   18.8365    0.0000 </r>
       <r>   18.8365    0.0000 </r>
       <r>   19.4777    0.0000 </r>
       <r>   20.9528    0.0000 </r>
       <r>   20.9528    0.0000 </r>
       <r>   21.8469    0.0000 </r>
       <r>   23.6411    0.0000 </r>
       <r>   27.9892    0.0000 </r>
       <r>   29.8902    0.0000 </r>
       <r>   30.2192    0.0000 </r>
      </set>
      <set comment="kpoint 53">
       <r>   -8.2148    1.0000 </r>
       <r>   -1.3939    1.0000 </r>
       <r>    1.3785    1.0000 </r>
       <r>    1.3785    1.0000 </r>
       <r>    6.0039    0.0000 </r>
       <r>    7.0511    0.0000 </r>
       <r>   12.7416    0.0000 </r>
       <r>   12.7416    0.0000 </r>
       <r>   13.6342    0.0000 </r>
       <r>   15.5702    0.0000 </r>
       <r>   18.3020    0.0000 </r>
       <r>   18.9765    0.0000 </r>
       <r>   18.9765    0.0000 </r>
       <r>   19.8775    0.0000 </r>
       <r>   20.7666    0.0000 </r>
       <r>   20.7666    0.0000 </r>
       <r>   21.3706    0.0000 </r>
       <r>   23.4006    0.0000 </r>
       <r>   28.3778    0.0000 </r>
       <r>   29.4456    0.0000 </r>
       <r>   29.5428    0.0000 </r>
      </set>
      <set comment="kpoint 54">
       <r>   -8.0772    1.0000 </r>
       <r>   -1.6447    1.0000 </r>
       <r>    1.2886    1.0000 </r>
       <r>    1.2887    1.0000 </r>
       <r>    5.8847    0.0000 </r>
       <r>    6.8873    0.0000 </r>
       <r>   13.0898    0.0000 </r>
       <r>   13.0898    0.0000 </r>
       <r>   14.0691    0.0000 </r>
       <r>   15.8251    0.0000 </r>
       <r>   18.5091    0.0000 </r>
       <r>   18.9149    0.0000 </r>
       <r>   18.9149    0.0000 </r>
       <r>   20.3059    0.0000 </r>
       <r>   20.8199    0.0000 </r>
       <r>   20.8199    0.0000 </r>
       <r>   20.9090    0.0000 </r>
       <r>   23.2371    0.0000 </r>
       <r>   28.1864    0.0000 </r>
       <r>   28.8512    0.0000 </r>
       <r>   28.8512    0.0000 </r>
      </set>
      <set comment="kpoint 55">
       <r>   -7.9451    1.0000 </r>
       <r>   -1.8752    1.0000 </r>
       <r>    1.2100    1.0000 </r>
       <r>    1.2100    1.0000 </r>
       <r>    5.7781    0.0000 </r>
       <r>    6.7445    0.0000 </r>
       <r>   13.4365    0.0000 </r>
       <r>   13.4365    0.0000 </r>
       <r>   14.4997    0.0000 </r>
[...]
       </set>
       <set comment="band 21">
        <r>  0.0093  0.0520  0.0520  0.0089  0.0000  0.0000  0.0000  0.0000  0.0000 </r>
        <r>  0.0091  0.0640  0.0640  0.0022  0.0315  0.0916  0.0038  0.0315  0.0113 </r>
       </set>
      </set>
      <set comment="kpoint 133">
       <set comment="band 1">
        <r>  0.0886  0.0003  0.0003  0.0000  0.0000  0.0000  0.0000  0.0000  0.0000 </r>
        <r>  0.4549  0.0002  0.0002  0.0000  0.0000  0.0000  0.0000  0.0000  0.0000 </r>
       </set>
       <set comment="band 2">
        <r>  0.0334  0.0154  0.0154  0.0069  0.0000  0.0000  0.0000  0.0000  0.0000 </r>
        <r>  0.0459  0.1835  0.1835  0.0020  0.0024  0.0003  0.0000  0.0024  0.0000 </r>
       </set>
       <set comment="band 3">
        <r>  0.0003  0.0046  0.0046  0.0379  0.0000  0.0000  0.0000  0.0000  0.0000 </r>
        <r>  0.0000  0.0013  0.0013  0.4267  0.0003  0.0050  0.0000  0.0003  0.0000 </r>
       </set>
       <set comment="band 4">
        <r>  0.0000  0.0210  0.0210  0.0000  0.0000  0.0000  0.0000  0.0000  0.0000 </r>
        <r>  0.0000  0.2225  0.2225  0.0000  0.0026  0.0000  0.0000  0.0026  0.0000 </r>
       </set>
       <set comment="band 5">
        <r>  0.2004  0.0028  0.0028  0.0063  0.0000  0.0000  0.0000  0.0000  0.0000 </r>
        <r>  0.3038  0.0297  0.0297  0.0014  0.0001  0.0013  0.0000  0.0001  0.0000 </r>
       </set>
       <set comment="band 6">
        <r>  0.0184  0.0976  0.0976  0.0035  0.0000  0.0000  0.0000  0.0000  0.0000 </r>
        <r>  0.0016  0.0087  0.0087  0.0189  0.0328  0.0001  0.0001  0.0328  0.0002 </r>
       </set>
       <set comment="band 7">
        <r>  0.0000  0.1123  0.1123  0.0000  0.0000  0.0000  0.0000  0.0000  0.0000 </r>
        <r>  0.0000  0.0119  0.0119  0.0000  0.0339  0.0000  0.0006  0.0339  0.0002 </r>
       </set>
       <set comment="band 8">
        <r>  0.0018  0.0021  0.0021  0.2104  0.0000  0.0000  0.0000  0.0000  0.0000 </r>
        <r>  0.0030  0.0118  0.0118  0.0198  0.0000  0.0676  0.0000  0.0000  0.0001 </r>
       </set>
       <set comment="band 9">
        <r>  0.0000  0.0010  0.0010  0.0000  0.0000  0.0000  0.0000  0.0000  0.0000 </r>
        <r>  0.0000  0.0008  0.0008  0.0000  0.0035  0.0000  0.0896  0.0035  0.0299 </r>
       </set>
       <set comment="band 10">
        <r>  0.0116  0.0026  0.0026  0.0005  0.0000  0.0000  0.0000  0.0000  0.0000 </r>
        <r>  0.0013  0.0002  0.0002  0.0001  0.0010  0.0001  0.0307  0.0010  0.0920 </r>
       </set>
       <set comment="band 11">
        <r>  0.2394  0.0104  0.0104  0.0001  0.0000  0.0000  0.0000  0.0000  0.0000 </r>
        <r>  0.0033  0.0010  0.0010  0.0006  0.0019  0.0001  0.0023  0.0019  0.0069 </r>
       </set>
       <set comment="band 12">
        <r>  0.0117  0.0085  0.0085  0.0002  0.0000  0.0000  0.0000  0.0000  0.0000 </r>
        <r>  0.0044  0.0139  0.0139  0.0006  0.0103  0.0003  0.0038  0.0103  0.0113 </r>
       </set>
       <set comment="band 13">
        <r>  0.0003  0.0002  0.0002  0.0263  0.0000  0.0000  0.0000  0.0000  0.0000 </r>
        <r>  0.0000  0.0003  0.0003  0.0351  0.0002  0.0270  0.0000  0.0002  0.0000 </r>
       </set>
       <set comment="band 14">
        <r>  0.0000  0.0119  0.0119  0.0000  0.0000  0.0000  0.0000  0.0000  0.0000 </r>
        <r>  0.0000  0.0174  0.0174  0.0000  0.0105  0.0000  0.0209  0.0105  0.0070 </r>
       </set>
       <set comment="band 15">
        <r>  0.0447  0.0035  0.0035  0.0000  0.0000  0.0000  0.0000  0.0000  0.0000 </r>
        <r>  0.0226  0.0034  0.0034  0.0000  0.0021  0.0000  0.0001  0.0021  0.0002 </r>
       </set>
       <set comment="band 16">
        <r>  0.0014  0.0243  0.0243  0.0005  0.0000  0.0000  0.0000  0.0000  0.0000 </r>
        <r>  0.0013  0.0271  0.0271  0.0174  0.0016  0.1496  0.0063  0.0016  0.0190 </r>
       </set>
       <set comment="band 17">
        <r>  0.0000  0.0000  0.0000  0.0601  0.0000  0.0000  0.0000  0.0000  0.0000 </r>
        <r>  0.0007  0.0144  0.0144  0.0704  0.0846  0.0029  0.0000  0.0846  0.0001 </r>
       </set>
       <set comment="band 18">
        <r>  0.0000  0.0024  0.0024  0.0000  0.0000  0.0000  0.0000  0.0000  0.0000 </r>
        <r>  0.0000  0.0282  0.0282  0.0000  0.0857  0.0000  0.0053  0.0857  0.0018 </r>
       </set>
       <set comment="band 19">
        <r>  0.0000  0.0362  0.0362  0.0000  0.0000  0.0000  0.0000  0.0000  0.0000 </r>
        <r>  0.0000  0.0268  0.0268  0.0000  0.0344  0.0000  0.1447  0.0344  0.0482 </r>
       </set>
       <set comment="band 20">
        <r>  0.0002  0.0019  0.0019  0.0001  0.0000  0.0000  0.0000  0.0000  0.0000 </r>
        <r>  0.0002  0.0036  0.0036  0.0094  0.0000  0.0254  0.0600  0.0000  0.1799 </r>
       </set>
       <set comment="band 21">
        <r>  0.0059  0.0620  0.0619  0.0145  0.0000  0.0000  0.0000  0.0000  0.0000 </r>
        <r>  0.0056  0.0717  0.0716  0.0060  0.0351  0.0858  0.0012  0.0352  0.0036 </r>
       </set>
      </set>
      <set comment="kpoint 134">
       <set comment="band 1">
        <r>  0.0894  0.0001  0.0001  0.0000  0.0000  0.0000  0.0000  0.0000  0.0000 </r>
        <r>  0.4537  0.0001  0.0001  0.0000  0.0000  0.0000  0.0000  0.0000  0.0000 </r>
       </set>
       <set comment="band 2">
        <r>  0.0189  0.0175  0.0175  0.0037  0.0000  0.0000  0.0000  0.0000  0.0000 </r>
        <r>  0.0266  0.2008  0.2008  0.0010  0.0025  0.0002  0.0000  0.0025  0.0000 </r>
       </set>
       <set comment="band 3">
        <r>  0.0001  0.0021  0.0021  0.0391  0.0000  0.0000  0.0000  0.0000  0.0000 </r>
        <r>  0.0000  0.0006  0.0006  0.4372  0.0001  0.0052  0.0000  0.0001  0.0000 </r>
       </set>
       <set comment="band 4">
        <r>  0.0000  0.0205  0.0205  0.0000  0.0000  0.0000  0.0000  0.0000  0.0000 </r>
        <r>  0.0000  0.2228  0.2228  0.0000  0.0026  0.0000  0.0000  0.0026  0.0000 </r>
       </set>
       <set comment="band 5">
        <r>  0.2137  0.0018  0.0018  0.0015  0.0000  0.0000  0.0000  0.0000  0.0000 </r>
        <r>  0.3287  0.0183  0.0183  0.0003  0.0001  0.0003  0.0000  0.0001  0.0000 </r>
       </set>
       <set comment="band 6">
        <r>  0.0091  0.1055  0.1055  0.0016  0.0000  0.0000  0.0000  0.0000  0.0000 </r>
        <r>  0.0007  0.0100  0.0100  0.0088  0.0337  0.0001  0.0000  0.0337  0.0001 </r>
       </set>
       <set comment="band 7">
        <r>  0.0000  0.1125  0.1125  0.0000  0.0000  0.0000  0.0000  0.0000  0.0000 </r>
        <r>  0.0000  0.0115  0.0115  0.0000  0.0343  0.0000  0.0003  0.0343  0.0001 </r>
       </set>
       <set comment="band 8">
        <r>  0.0004  0.0009  0.0009  0.2195  0.0000  0.0000  0.0000  0.0000  0.0000 </r>
        <r>  0.0007  0.0049  0.0049  0.0214  0.0000  0.0687  0.0000  0.0000  0.0000 </r>
       </set>
       <set comment="band 9">
        <r>  0.0000  0.0007  0.0007  0.0000  0.0000  0.0000  0.0000  0.0000  0.0000 </r>
        <r>  0.0000  0.0006  0.0006  0.0000  0.0020  0.0000  0.0983  0.0020  0.0328 </r>
       </set>
       <set comment="band 10">
        <r>  0.1893  0.0056  0.0056  0.0001  0.0000  0.0000  0.0000  0.0000  0.0000 </r>
        <r>  0.0038  0.0001  0.0001  0.0000  0.0000  0.0000  0.0094  0.0000  0.0281 </r>
       </set>
       <set comment="band 11">
        <r>  0.0763  0.0006  0.0006  0.0000  0.0000  0.0000  0.0000  0.0000  0.0000 </r>
        <r>  0.0007  0.0006  0.0006  0.0001  0.0013  0.0000  0.0257  0.0013  0.0771 </r>
       </set>
       <set comment="band 12">
        <r>  0.0061  0.0111  0.0111  0.0001  0.0000  0.0000  0.0000  0.0000  0.0000 </r>
        <r>  0.0023  0.0161  0.0161  0.0003  0.0117  0.0001  0.0018  0.0117  0.0054 </r>
       </set>
       <set comment="band 13">
        <r>  0.0001  0.0001  0.0001  0.0271  0.0000  0.0000  0.0000  0.0000  0.0000 </r>
        <r>  0.0000  0.0001  0.0001  0.0360  0.0001  0.0265  0.0000  0.0001  0.0000 </r>
       </set>
       <set comment="band 14">
        <r>  0.0000  0.0127  0.0127  0.0000  0.0000  0.0000  0.0000  0.0000  0.0000 </r>
        <r>  0.0000  0.0176  0.0176  0.0000  0.0115  0.0000  0.0123  0.0115  0.0041 </r>
       </set>
       <set comment="band 15">
        <r>  0.0496  0.0018  0.0018  0.0000  0.0000  0.0000  0.0000  0.0000  0.0000 </r>
        <r>  0.0249  0.0017  0.0017  0.0000  0.0010  0.0000  0.0000  0.0010  0.0001 </r>
       </set>
       <set comment="band 16">
        <r>  0.0005  0.0181  0.0181  0.0000  0.0000  0.0000  0.0000  0.0000  0.0000 </r>
        <r>  0.0005  0.0220  0.0220  0.0288  0.0007  0.1710  0.0031  0.0007  0.0092 </r>
       </set>
       <set comment="band 17">
        <r>  0.0001  0.0001  0.0001  0.0394  0.0000  0.0000  0.0000  0.0000  0.0000 </r>
        <r>  0.0004  0.0193  0.0193  0.0495  0.0889  0.0009  0.0001  0.0889  0.0002 </r>
       </set>
       <set comment="band 18">
        <r>  0.0000  0.0024  0.0024  0.0000  0.0000  0.0000  0.0000  0.0000  0.0000 </r>
        <r>  0.0000  0.0307  0.0307  0.0000  0.0899  0.0000  0.0031  0.0899  0.0010 </r>
       </set>
       <set comment="band 19">
        <r>  0.0000  0.0325  0.0325  0.0000  0.0000  0.0000  0.0000  0.0000  0.0000 </r>
        <r>  0.0000  0.0246  0.0246  0.0000  0.0321  0.0000  0.1620  0.0321  0.0540 </r>
       </set>
       <set comment="band 20">
        <r>  0.0000  0.0001  0.0001  0.0005  0.0000  0.0000  0.0000  0.0000  0.0000 </r>
        <r>  0.0000  0.0000  0.0000  0.0073  0.0018  0.0141  0.0681  0.0018  0.2042 </r>
       </set>
       <set comment="band 21">
        <r>  0.0027  0.0668  0.0668  0.0306  0.0000  0.0000  0.0000  0.0000  0.0000 </r>
        <r>  0.0025  0.0743  0.0743  0.0189  0.0354  0.0884  0.0000  0.0354  0.0000 </r>
       </set>
      </set>
      <set comment="kpoint 135">
       <set comment="band 1">
        <r>  0.0898  0.0000  0.0000  0.0000  0.0000  0.0000  0.0000  0.0000  0.0000 </r>
        <r>  0.4529  0.0000  0.0000  0.0000  0.0000  0.0000  0.0000  0.0000  0.0000 </r>
       </set>
       <set comment="band 2">
        <r>  0.0057  0.0193  0.0193  0.0011  0.0000  0.0000  0.0000  0.0000  0.0000 </r>
        <r>  0.0082  0.2163  0.2163  0.0003  0.0026  0.0001  0.0000  0.0026  0.0000 </r>
       </set>
       <set comment="band 3">
        <r>  0.0000  0.0006  0.0006  0.0399  0.0000  0.0000  0.0000  0.0000  0.0000 </r>
        <r>  0.0000  0.0002  0.0002  0.4438  0.0000  0.0052  0.0000  0.0000  0.0000 </r>
       </set>
       <set comment="band 4">
        <r>  0.0000  0.0202  0.0202  0.0000  0.0000  0.0000  0.0000  0.0000  0.0000 </r>
        <r>  0.0000  0.2230  0.2230  0.0000  0.0026  0.0000  0.0000  0.0026  0.0000 </r>
       </set>
       <set comment="band 5">
        <r>  0.2258  0.0006  0.0006  0.0001  0.0000  0.0000  0.0000  0.0000  0.0000 </r>
        <r>  0.3495  0.0058  0.0058  0.0000  0.0000  0.0000  0.0000  0.0000  0.0000 </r>
       </set>
       <set comment="band 6">
        <r>  0.0024  0.1108  0.1108  0.0004  0.0000  0.0000  0.0000  0.0000  0.0000 </r>
        <r>  0.0002  0.0109  0.0109  0.0023  0.0343  0.0000  0.0000  0.0343  0.0000 </r>
       </set>
       <set comment="band 7">
        <r>  0.0000  0.1126  0.1126  0.0000  0.0000  0.0000  0.0000  0.0000  0.0000 </r>
        <r>  0.0000  0.0113  0.0113  0.0000  0.0345  0.0000  0.0001  0.0345  0.0000 </r>
       </set>
       <set comment="band 8">
        <r>  0.0000  0.0002  0.0002  0.2240  0.0000  0.0000  0.0000  0.0000  0.0000 </r>
        <r>  0.0000  0.0012  0.0012  0.0221  0.0000  0.0691  0.0000  0.0000  0.0000 </r>
       </set>
       <set comment="band 9">
        <r>  0.2750  0.0016  0.0016  0.0000  0.0000  0.0000  0.0000  0.0000  0.0000 </r>
        <r>  0.0045  0.0001  0.0001  0.0000  0.0001  0.0000  0.0001  0.0001  0.0002 </r>
       </set>
       <set comment="band 10">
        <r>  0.0000  0.0002  0.0002  0.0000  0.0000  0.0000  0.0000  0.0000  0.0000 </r>
        <r>  0.0000  0.0002  0.0002  0.0000  0.0006  0.0000  0.1068  0.0006  0.0356 </r>
       </set>
       <set comment="band 11">
        <r>  0.0005  0.0001  0.0001  0.0000  0.0000  0.0000  0.0000  0.0000  0.0000 </r>
        <r>  0.0000  0.0001  0.0001  0.0000  0.0002  0.0000  0.0364  0.0002  0.1092 </r>
       </set>
       <set comment="band 12">
        <r>  0.0017  0.0131  0.0131  0.0000  0.0000  0.0000  0.0000  0.0000  0.0000 </r>
        <r>  0.0006  0.0177  0.0177  0.0001  0.0127  0.0000  0.0005  0.0127  0.0014 </r>
       </set>
       <set comment="band 13">
        <r>  0.0000  0.0000  0.0000  0.0275  0.0000  0.0000  0.0000  0.0000  0.0000 </r>
        <r>  0.0000  0.0000  0.0000  0.0365  0.0000  0.0263  0.0000  0.0000  0.0000 </r>
       </set>
       <set comment="band 14">
        <r>  0.0000  0.0135  0.0135  0.0000  0.0000  0.0000  0.0000  0.0000  0.0000 </r>
        <r>  0.0000  0.0181  0.0181  0.0000  0.0126  0.0000  0.0039  0.0126  0.0013 </r>
       </set>
       <set comment="band 15">
        <r>  0.0533  0.0005  0.0005  0.0000  0.0000  0.0000  0.0000  0.0000  0.0000 </r>
        <r>  0.0267  0.0005  0.0005  0.0000  0.0003  0.0000  0.0000  0.0003  0.0000 </r>
       </set>
       <set comment="band 16">
        <r>  0.0001  0.0073  0.0073  0.0017  0.0000  0.0000  0.0000  0.0000  0.0000 </r>
        <r>  0.0001  0.0099  0.0099  0.0503  0.0000  0.1874  0.0004  0.0000  0.0012 </r>
       </set>
       <set comment="band 17">
        <r>  0.0000  0.0012  0.0012  0.0146  0.0000  0.0000  0.0000  0.0000  0.0000 </r>
        <r>  0.0002  0.0273  0.0273  0.0201  0.0929  0.0000  0.0001  0.0929  0.0002 </r>
       </set>
       <set comment="band 18">
        <r>  0.0000  0.0024  0.0024  0.0000  0.0000  0.0000  0.0000  0.0000  0.0000 </r>
        <r>  0.0000  0.0328  0.0328  0.0000  0.0936  0.0000  0.0010  0.0936  0.0003 </r>
       </set>
       <set comment="band 19">
        <r>  0.0000  0.0223  0.0223  0.0000  0.0000  0.0000  0.0000  0.0000  0.0000 </r>
        <r>  0.0000  0.0176  0.0176  0.0000  0.0223  0.0000  0.1973  0.0223  0.0658 </r>
       </set>
       <set comment="band 20">
        <r>  0.0000  0.0033  0.0033  0.0005  0.0000  0.0000  0.0000  0.0000  0.0000 </r>
        <r>  0.0000  0.0022  0.0022  0.0024  0.0047  0.0021  0.0768  0.0047  0.2303 </r>
       </set>
       <set comment="band 21">
        <r>  0.0004  0.0272  0.0330  0.1313  0.0000  0.0000  0.0000  0.0000  0.0000 </r>
        <r>  0.0003  0.0329  0.0390  0.1093  0.0115  0.1474  0.0006  0.0085  0.0005 </r>
       </set>
      </set>
      <set comment="kpoint 136">
       <set comment="band 1">
        <r>  0.0900  0.0000  0.0000  0.0000  0.0000  0.0000  0.0000  0.0000  0.0000 </r>
        <r>  0.4527  0.0000  0.0000  0.0000  0.0000  0.0000  0.0000  0.0000  0.0000 </r>
       </set>
       <set comment="band 2">
        <r>  0.0000  0.0270  0.0066  0.0066  0.0000  0.0000  0.0000  0.0000  0.0000 </r>
        <r>  0.0000  0.2992  0.0736  0.0733  0.0009  0.0009  0.0000  0.0035  0.0000 </r>
       </set>
       <set comment="band 3">
        <r>  0.0000  0.0000  0.0201  0.0201  0.0000  0.0000  0.0000  0.0000  0.0000 </r>
        <r>  0.0000  0.0000  0.2229  0.2232  0.0026  0.0026  0.0000  0.0000  0.0000 </r>
       </set>
       <set comment="band 4">
        <r>  0.0000  0.0132  0.0135  0.0135  0.0000  0.0000  0.0000  0.0000  0.0000 </r>
        <r>  0.0000  0.1468  0.1496  0.1496  0.0018  0.0018  0.0000  0.0017  0.0000 </r>
       </set>
       <set comment="band 5">
        <r>  0.2310  0.0000  0.0000  0.0000  0.0000  0.0000  0.0000  0.0000  0.0000 </r>
        <r>  0.3582  0.0000  0.0000  0.0000  0.0000  0.0000  0.0000  0.0000  0.0000 </r>
       </set>
       <set comment="band 6">
        <r>  0.0000  0.0000  0.1128  0.1126  0.0000  0.0000  0.0000  0.0000  0.0000 </r>
        <r>  0.0000  0.0000  0.0112  0.0112  0.0346  0.0345  0.0000  0.0000  0.0000 </r>
       </set>
       <set comment="band 7">
        <r>  0.0000  0.1501  0.0376  0.0377  0.0000  0.0000  0.0000  0.0000  0.0000 </r>
        <r>  0.0000  0.0149  0.0037  0.0037  0.0115  0.0116  0.0000  0.0461  0.0000 </r>
       </set>
       <set comment="band 8">
        <r>  0.0000  0.0753  0.0750  0.0750  0.0000  0.0000  0.0000  0.0000  0.0000 </r>
        <r>  0.0000  0.0075  0.0074  0.0074  0.0230  0.0230  0.0000  0.0231  0.0000 </r>
       </set>
       <set comment="band 9">
        <r>  0.2790  0.0000  0.0000  0.0000  0.0000  0.0000  0.0000  0.0000  0.0000 </r>
        <r>  0.0045  0.0000  0.0000  0.0000  0.0000  0.0000  0.0000  0.0000  0.0000 </r>
       </set>
       <set comment="band 10">
        <r>  0.0000  0.0000  0.0000  0.0000  0.0000  0.0000  0.0000  0.0000  0.0000 </r>
        <r>  0.0000  0.0000  0.0000  0.0000  0.0000  0.0000  0.0373  0.0000  0.1103 </r>
       </set>
       <set comment="band 11">
        <r>  0.0000  0.0000  0.0000  0.0000  0.0000  0.0000  0.0000  0.0000  0.0000 </r>
        <r>  0.0000  0.0000  0.0000  0.0000  0.0000  0.0000  0.1103  0.0000  0.0373 </r>
       </set>
       <set comment="band 12">
        <r>  0.0000  0.0185  0.0047  0.0045  0.0000  0.0000  0.0000  0.0000  0.0000 </r>
        <r>  0.0000  0.0245  0.0062  0.0060  0.0044  0.0043  0.0000  0.0175  0.0000 </r>
       </set>
       <set comment="band 13">
        <r>  0.0000  0.0000  0.0138  0.0139  0.0000  0.0000  0.0000  0.0000  0.0000 </r>
        <r>  0.0000  0.0000  0.0182  0.0184  0.0130  0.0131  0.0000  0.0000  0.0000 </r>
       </set>
       <set comment="band 14">
        <r>  0.0000  0.0092  0.0092  0.0092  0.0000  0.0000  0.0000  0.0000  0.0000 </r>
        <r>  0.0000  0.0122  0.0122  0.0122  0.0087  0.0087  0.0000  0.0087  0.0000 </r>
       </set>
       <set comment="band 15">
        <r>  0.0547  0.0000  0.0000  0.0000  0.0000  0.0000  0.0000  0.0000  0.0000 </r>
        <r>  0.0273  0.0000  0.0000  0.0000  0.0000  0.0000  0.0000  0.0000  0.0000 </r>
       </set>
       <set comment="band 16">
        <r>  0.0000  0.0016  0.0016  0.0016  0.0000  0.0000  0.0000  0.0000  0.0000 </r>
        <r>  0.0000  0.0225  0.0224  0.0224  0.0633  0.0633  0.0000  0.0636  0.0000 </r>
       </set>
       <set comment="band 17">
        <r>  0.0000  0.0033  0.0008  0.0008  0.0000  0.0000  0.0000  0.0000  0.0000 </r>
        <r>  0.0000  0.0448  0.0115  0.0110  0.0327  0.0310  0.0000  0.1267  0.0000 </r>
       </set>
       <set comment="band 18">
        <r>  0.0000  0.0000  0.0024  0.0025  0.0000  0.0000  0.0000  0.0000  0.0000 </r>
        <r>  0.0000  0.0000  0.0333  0.0339  0.0943  0.0960  0.0000  0.0000  0.0000 </r>
       </set>
       <set comment="band 19">
        <r>  0.0000  0.0000  0.0000  0.0000  0.0000  0.0000  0.0000  0.0000  0.0000 </r>
        <r>  0.0000  0.0000  0.0000  0.0000  0.0000  0.0000  0.0379  0.0000  0.3091 </r>
       </set>
       <set comment="band 20">
        <r>  0.0000  0.0000  0.0000  0.0000  0.0000  0.0000  0.0000  0.0000  0.0000 </r>
        <r>  0.0000  0.0000  0.0000  0.0000  0.0000  0.0000  0.3091  0.0000  0.0379 </r>
       </set>
       <set comment="band 21">
        <r>  0.0000  0.1049  0.0732  0.0265  0.0000  0.0000  0.0000  0.0000  0.0000 </r>
        <r>  0.0000  0.0956  0.0668  0.0242  0.0650  0.0236  0.0000  0.0931  0.0000 </r>
       </set>
      </set>
     </set>
    </set>
   </array>
  </projected>
 </calculation>
 <structure name="finalpos" >
  <crystal>
   <varray name="basis" >
    <v>       2.83840171       2.83840171       0.00000000 </v>
    <v>       0.00000000       2.83840171       2.83840171 </v>
    <v>       2.83840171       0.00000000       2.83840171 </v>
   </varray>
   <i name="volume">     45.73530449 </i>
   <varray name="rec_basis" >
    <v>       0.17615547       0.17615547      -0.17615547 </v>
    <v>      -0.17615547       0.17615547       0.17615547 </v>
    <v>       0.17615547      -0.17615547       0.17615547 </v>
   </varray>
  </crystal>
  <varray name="positions" >
   <v>       0.00000000       0.00000000       0.00000000 </v>
   <v>       0.25000000       0.25000000       0.25000000 </v>
  </varray>
 </structure>
</modeling>
